VARIABLES ="X" "Y" "Z" "rho" "press" "temp" "tau_wall" "qdot" "yplus" "muLam" "ZMean" "ZVar" "CMean" 
Zone T ="wall" I = 8632 , F = point
5.68622500e-01	1.29320011e-01	4.39453148e-03	1.89871201e+00	2.20375076e+05	3.00000000e+02	2.84049350e+03	6.35989608e+06	1.89338036e+00	1.82105968e-05	1.94268883e-04	2.60437142e-13	2.05736831e-03
5.68622500e-01	1.29320011e-01	4.98046889e-03	1.85908394e+00	2.14628199e+05	3.00000000e+02	2.85112667e+03	6.23540492e+06	1.87707353e+00	1.82100890e-05	1.13935746e-04	1.38917225e-13	1.05023563e-03
5.68622500e-01	1.29320011e-01	2.92968761e-04	2.25876666e+00	2.66223245e+05	3.00000000e+02	2.43939730e+03	6.72766086e+06	1.92191675e+00	1.81333472e-05	1.37577444e-03	1.61215631e-12	1.25698429e-02
5.68622500e-01	1.29320011e-01	8.78906286e-04	2.22203065e+00	2.62601006e+05	3.00000000e+02	2.49130650e+03	6.78957149e+06	1.92543164e+00	1.81424567e-05	1.30558068e-03	1.58700340e-12	1.20354079e-02
5.68622500e-01	1.29320011e-01	1.46484381e-03	2.17946218e+00	2.58177058e+05	3.00000000e+02	2.59039376e+03	6.83481712e+06	1.94205723e+00	1.81648214e-05	1.14118151e-03	1.61378000e-12	1.07897987e-02
5.68622500e-01	1.29320011e-01	2.05078133e-03	2.12505949e+00	2.51395478e+05	3.00000000e+02	2.64025872e+03	6.81184378e+06	1.93524734e+00	1.81722166e-05	9.17535982e-04	1.39689838e-12	8.56856955e-03
5.68622500e-01	1.29320011e-01	2.63671891e-03	2.06733551e+00	2.43565461e+05	3.00000000e+02	2.69310666e+03	6.71323588e+06	1.92621096e+00	1.81871231e-05	6.83555100e-04	1.05394874e-12	6.74734912e-03
5.68622500e-01	1.29320011e-01	3.22265643e-03	2.00529286e+00	2.35156392e+05	3.00000000e+02	2.73571362e+03	6.62135234e+06	1.91232511e+00	1.81843628e-05	4.75813892e-04	7.07496346e-13	4.76674308e-03
5.68622500e-01	1.29320011e-01	3.80859396e-03	1.94859443e+00	2.27318097e+05	3.00000000e+02	2.79408350e+03	6.48330803e+06	1.90314258e+00	1.82030721e-05	3.12320645e-04	4.41202532e-13	3.38134750e-03
5.69999933e-01	1.29320011e-01	4.39453148e-03	1.88763835e+00	2.18190710e+05	3.00000000e+02	2.78484518e+03	6.25328725e+06	1.86924976e+00	1.82107649e-05	2.12029127e-04	2.43566830e-13	2.33252991e-03
5.69999934e-01	1.29320011e-01	4.98046889e-03	1.84093240e+00	2.11441047e+05	3.00000000e+02	2.78608517e+03	6.10497263e+06	1.84645324e+00	1.82101447e-05	1.24703492e-04	1.28678761e-13	1.20170803e-03
5.69999934e-01	1.29320011e-01	5.56640653e-03	1.80670713e+00	2.06104312e+05	3.00000000e+02	2.76585193e+03	5.94161995e+06	1.82257592e+00	1.82099314e-05	6.90632818e-05	6.23302244e-14	5.77737015e-04
5.69999934e-01	1.29320011e-01	6.15234417e-03	1.78534505e+00	2.02162402e+05	3.00000000e+02	2.72429903e+03	5.76163231e+06	1.79811487e+00	1.82098611e-05	3.58771820e-05	2.78658663e-14	2.62328608e-04
5.69999933e-01	1.29320011e-01	6.73828158e-03	1.77566596e+00	1.99445735e+05	3.00000000e+02	2.66471394e+03	5.56525801e+06	1.77351743e+00	1.82098373e-05	1.73705597e-05	1.15582522e-14	1.11725663e-04
5.69999933e-01	1.29320011e-01	7.32421898e-03	1.77588792e+00	1.97715661e+05	3.00000000e+02	2.59026015e+03	5.35187011e+06	1.74867541e+00	1.82098288e-05	7.78258740e-06	4.45031499e-15	4.43014293e-05
5.69999934e-01	1.29320011e-01	7.91015662e-03	1.78437827e+00	1.96704263e+05	3.00000000e+02	2.50005122e+03	5.11472959e+06	1.72205782e+00	1.82098254e-05	3.20898294e-06	1.57468119e-15	1.62748319e-05
5.69999934e-01	1.29320011e-01	8.49609403e-03	1.79885093e+00	1.96213460e+05	3.00000000e+02	2.39820705e+03	4.86384378e+06	1.69344373e+00	1.82098241e-05	1.22723035e-06	5.15405076e-16	5.57387720e-06
5.69999934e-01	1.29320011e-01	9.08203144e-03	1.81588186e+00	1.96106894e+05	3.00000000e+02	2.29816078e+03	4.62990175e+06	1.66557370e+00	1.82098237e-05	4.96284612e-07	1.74091311e-16	1.99417758e-06
5.63143372e-01	1.29320011e-01	2.92968761e-04	1.84862772e+00	2.09241660e+05	3.00000000e+02	2.32234636e+03	5.66988800e+06	1.69310784e+00	1.81693421e-05	1.11625673e-03	1.00945275e-12	1.03590653e-02
5.61781168e-01	1.29320011e-01	2.92968761e-04	1.77742129e+00	1.99955692e+05	3.00000000e+02	2.34113684e+03	5.52346878e+06	1.66672985e+00	1.81710060e-05	1.05830625e-03	9.35702164e-13	9.75684431e-03
5.60422004e-01	1.29320011e-01	2.92968761e-04	1.74482856e+00	1.95687703e+05	3.00000000e+02	2.35063939e+03	5.45290184e+06	1.65461723e+00	1.81721971e-05	1.00232260e-03	8.84704066e-13	9.15635996e-03
5.59065848e-01	1.29320011e-01	2.92968761e-04	1.73074542e+00	1.93810837e+05	3.00000000e+02	2.35978812e+03	5.41772795e+06	1.65091053e+00	1.81746124e-05	9.48359182e-04	8.42943576e-13	8.56649361e-03
5.57712704e-01	1.29320011e-01	2.92968761e-04	1.72542833e+00	1.93100679e+05	3.00000000e+02	2.37602794e+03	5.40330648e+06	1.65369110e+00	1.81783911e-05	8.96568649e-04	8.12915128e-13	8.04083765e-03
5.63143372e-01	1.29320011e-01	8.78906286e-04	1.85506395e+00	2.11363970e+05	3.00000000e+02	2.38591845e+03	5.83902765e+06	1.71897088e+00	1.81708113e-05	1.07061362e-03	1.13126258e-12	9.89831012e-03
5.61781168e-01	1.29320011e-01	8.78906286e-04	1.78158185e+00	2.01656738e+05	3.00000000e+02	2.39593296e+03	5.67983999e+06	1.68803689e+00	1.81716300e-05	1.01572112e-03	1.03706125e-12	9.31611350e-03
5.60422004e-01	1.29320011e-01	8.78906287e-04	1.74423226e+00	1.96700581e+05	3.00000000e+02	2.40494129e+03	5.59100407e+06	1.67318479e+00	1.81738142e-05	9.61075385e-04	9.71345726e-13	8.71612895e-03
5.59065848e-01	1.29320011e-01	8.78906286e-04	1.72750285e+00	1.94475317e+05	3.00000000e+02	2.41615839e+03	5.54894583e+06	1.66873815e+00	1.81768862e-05	9.07608741e-04	9.21875545e-13	8.15388246e-03
5.57712704e-01	1.29320011e-01	8.78906287e-04	1.72184644e+00	1.93693854e+05	3.00000000e+02	2.43526494e+03	5.52913188e+06	1.67206879e+00	1.81824236e-05	8.56017142e-04	8.92096339e-13	7.70776296e-03
5.63143372e-01	1.29320011e-01	1.46484381e-03	1.87368464e+00	2.14698363e+05	3.00000000e+02	2.43109683e+03	5.99097289e+06	1.74364131e+00	1.81730501e-05	9.55417404e-04	1.14614952e-12	8.74242449e-03
5.61781168e-01	1.29320011e-01	1.46484381e-03	1.79668689e+00	2.04386981e+05	3.00000000e+02	2.43519659e+03	5.80932382e+06	1.70862927e+00	1.81756925e-05	9.11615677e-04	1.03627607e-12	8.25991709e-03
5.60422004e-01	1.29320011e-01	1.46484381e-03	1.75209913e+00	1.98450378e+05	3.00000000e+02	2.45026721e+03	5.69926752e+06	1.69201037e+00	1.81810364e-05	8.63913268e-04	9.67748149e-13	7.82826287e-03
5.59065848e-01	1.29320011e-01	1.46484381e-03	1.73040718e+00	1.95603526e+05	3.00000000e+02	2.47064451e+03	5.65043063e+06	1.68810104e+00	1.81851314e-05	8.14913009e-04	9.29056776e-13	7.42886248e-03
5.63143372e-01	1.29320011e-01	2.05078133e-03	1.90496300e+00	2.19434096e+05	3.00000000e+02	2.48829131e+03	6.12482979e+06	1.77748512e+00	1.81854272e-05	7.89622000e-04	1.06564968e-12	7.34898879e-03
5.61781168e-01	1.29320011e-01	2.05078133e-03	1.82622566e+00	2.08779880e+05	3.00000000e+02	2.48658091e+03	5.93751928e+06	1.73964910e+00	1.81866394e-05	7.60991499e-04	9.75597042e-13	7.11971450e-03
5.60422003e-01	1.29320011e-01	2.05078133e-03	1.77030276e+00	2.01431382e+05	3.00000000e+02	2.50403869e+03	5.82327211e+06	1.71869481e+00	1.81878398e-05	7.24288025e-04	9.20884167e-13	6.81555526e-03
5.59065848e-01	1.29320011e-01	2.05078133e-03	1.74021588e+00	1.97530547e+05	3.00000000e+02	2.52386654e+03	5.76814907e+06	1.71067495e+00	1.81887502e-05	6.82394304e-04	8.85195671e-13	6.43934039e-03
5.63143372e-01	1.29320011e-01	2.63671891e-03	1.94006697e+00	2.24798410e+05	3.00000000e+02	2.55841352e+03	6.29706421e+06	1.81863720e+00	1.81879293e-05	6.02268051e-04	9.28967470e-13	5.86171500e-03
5.61781168e-01	1.29320011e-01	2.63671891e-03	1.86592411e+00	2.14522515e+05	3.00000000e+02	2.53477957e+03	6.10142014e+06	1.77529978e+00	1.81878341e-05	5.87242947e-04	8.54632410e-13	5.65748052e-03
5.60422003e-01	1.29320011e-01	2.63671891e-03	1.79974455e+00	2.05735661e+05	3.00000000e+02	2.54004718e+03	5.96192827e+06	1.74539646e+00	1.81872833e-05	5.62753726e-04	7.96696000e-13	5.35572085e-03
5.59065848e-01	1.29320011e-01	2.63671891e-03	1.75867234e+00	2.00351478e+05	3.00000000e+02	2.55232927e+03	5.88183672e+06	1.72965869e+00	1.81859503e-05	5.30127233e-04	7.46264199e-13	4.98122232e-03
5.63143372e-01	1.29320011e-01	3.22265643e-03	1.97468311e+00	2.30094396e+05	3.00000000e+02	2.62378814e+03	6.45504367e+06	1.85772895e+00	1.81914089e-05	4.23685207e-04	7.05086160e-13	4.17560645e-03
5.61781168e-01	1.29320011e-01	3.22265643e-03	1.91295602e+00	2.21179589e+05	3.00000000e+02	2.57831461e+03	6.25737415e+06	1.81242242e+00	1.81926774e-05	4.17884624e-04	6.50587673e-13	4.08552266e-03
5.60422003e-01	1.29320011e-01	3.22265644e-03	1.84194101e+00	2.11524033e+05	3.00000000e+02	2.57158945e+03	6.08490730e+06	1.77592885e+00	1.81948597e-05	4.04899186e-04	6.03491481e-13	3.93540172e-03
5.59065848e-01	1.29320011e-01	3.22265643e-03	1.78834646e+00	2.04477268e+05	3.00000000e+02	2.58870171e+03	5.97475302e+06	1.75540651e+00	1.81980447e-05	3.83277800e-04	5.68379045e-13	3.70912598e-03
5.63143372e-01	1.29320011e-01	3.80859396e-03	2.00513900e+00	2.34818556e+05	3.00000000e+02	2.72348947e+03	6.58045375e+06	1.90550263e+00	1.82079536e-05	2.77187267e-04	5.07747103e-13	2.86808605e-03
5.61781168e-01	1.29320011e-01	3.80859396e-03	1.96199388e+00	2.28288740e+05	3.00000000e+02	2.66086085e+03	6.41565440e+06	1.86303883e+00	1.82084759e-05	2.75568628e-04	4.77930070e-13	2.80489878e-03
5.60422003e-01	1.29320011e-01	3.80859396e-03	1.89441061e+00	2.18762033e+05	3.00000000e+02	2.62696082e+03	6.22368306e+06	1.81887922e+00	1.82093982e-05	2.69977584e-04	4.42673403e-13	2.69232058e-03
5.59065848e-01	1.29320011e-01	3.80859396e-03	1.82946578e+00	2.10029870e+05	3.00000000e+02	2.62763498e+03	6.07650493e+06	1.78750691e+00	1.82109469e-05	2.57457888e-04	4.09937438e-13	2.49171181e-03
5.63143372e-01	1.29320011e-01	4.39453148e-03	2.02804955e+00	2.38432540e+05	3.00000000e+02	2.80590449e+03	6.69161308e+06	1.94488032e+00	1.82103561e-05	1.68040100e-04	3.30369161e-13	1.56529310e-03
5.61781168e-01	1.29320011e-01	4.39453148e-03	2.00823138e+00	2.34962099e+05	3.00000000e+02	2.72911269e+03	6.56785966e+06	1.90868910e+00	1.82103382e-05	1.67209460e-04	3.15483807e-13	1.50971175e-03
5.60422003e-01	1.29320011e-01	4.39453149e-03	1.95298912e+00	2.26808308e+05	3.00000000e+02	2.66851347e+03	6.37935360e+06	1.86124182e+00	1.82103128e-05	1.65073028e-04	2.90116932e-13	1.43978616e-03
5.59065848e-01	1.29320011e-01	4.39453149e-03	1.88230997e+00	2.16977637e+05	3.00000000e+02	2.64327644e+03	6.19222628e+06	1.81859577e+00	1.82102657e-05	1.58872221e-04	2.62102640e-13	1.32902873e-03
5.63143372e-01	1.29320011e-01	4.98046889e-03	2.04261655e+00	2.40709828e+05	3.00000000e+02	2.86851915e+03	6.75972625e+06	1.97354944e+00	1.82099975e-05	9.44633080e-05	1.89601533e-13	7.49541819e-04
5.61781168e-01	1.29320011e-01	4.98046889e-03	2.04711325e+00	2.40658353e+05	3.00000000e+02	2.79091906e+03	6.69791573e+06	1.94881421e+00	1.82099903e-05	9.33776492e-05	1.85259583e-13	7.14759608e-04
5.63143372e-01	1.29320011e-01	5.56640653e-03	2.05067673e+00	2.41664154e+05	3.00000000e+02	2.91083596e+03	6.76385318e+06	1.99198449e+00	1.82098812e-05	4.94107023e-05	9.75216197e-14	3.35432431e-04
5.61781168e-01	1.29320011e-01	5.56640653e-03	2.07740454e+00	2.44922462e+05	3.00000000e+02	2.84322921e+03	6.77533926e+06	1.98150437e+00	1.82098780e-05	4.81700936e-05	9.77800755e-14	3.13179314e-04
5.63143372e-01	1.29320011e-01	6.15234417e-03	2.05481688e+00	2.41485921e+05	3.00000000e+02	2.92568632e+03	6.69501356e+06	1.99907836e+00	1.82098438e-05	2.40209960e-05	4.46624654e-14	1.40368792e-04
5.61781168e-01	1.29320011e-01	6.15234417e-03	2.10027618e+00	2.47636440e+05	3.00000000e+02	2.87579895e+03	6.77886688e+06	2.00376539e+00	1.82098424e-05	2.29659033e-05	4.58857728e-14	1.27490001e-04
5.63143372e-01	1.29320011e-01	6.73828158e-03	2.05841548e+00	2.40531271e+05	3.00000000e+02	2.90812734e+03	6.55024404e+06	1.99481631e+00	1.82098310e-05	1.08022455e-05	1.81730732e-14	5.45992689e-05
5.61781168e-01	1.29320011e-01	6.73828157e-03	2.11845516e+00	2.48942362e+05	3.00000000e+02	2.87828284e+03	6.69361951e+06	2.01328875e+00	1.82098304e-05	1.00849915e-05	1.89717204e-14	4.80156939e-05
5.63143372e-01	1.29320011e-01	7.32421898e-03	2.06479237e+00	2.39202537e+05	3.00000000e+02	2.85598210e+03	6.33225159e+06	1.97991127e+00	1.82098263e-05	4.46118491e-06	6.58625024e-15	1.95920043e-05
5.61781168e-01	1.29320011e-01	7.32421898e-03	2.13565991e+00	2.49205482e+05	3.00000000e+02	2.84344156e+03	6.51484586e+06	2.00917610e+00	1.82098260e-05	4.05025569e-06	6.88254300e-15	1.66110230e-05
5.63143372e-01	1.29320011e-01	7.91015662e-03	2.07648941e+00	2.37900220e+05	3.00000000e+02	2.77106757e+03	6.05438205e+06	1.95577214e+00	1.82098244e-05	1.68537522e-06	2.15609665e-15	6.48406719e-06
5.61781168e-01	1.29320011e-01	7.91015663e-03	2.15528461e+00	2.48933525e+05	3.00000000e+02	2.77061959e+03	6.25659403e+06	1.99237281e+00	1.82098243e-05	1.48134811e-06	2.22273774e-15	5.28007493e-06
5.63143373e-01	1.29320011e-01	8.49609403e-03	2.09421234e+00	2.36952044e+05	3.00000000e+02	2.66031543e+03	5.74569758e+06	1.92445065e+00	1.82098237e-05	5.89532218e-07	6.31039826e-16	2.00642576e-06
5.61781168e-01	1.29320011e-01	8.49609403e-03	2.17807523e+00	2.48509959e+05	3.00000000e+02	2.66575904e+03	5.95190566e+06	1.96461176e+00	1.82098237e-05	5.00261163e-07	6.34222897e-16	1.56959092e-06
5.63143372e-01	1.29320011e-01	9.08203144e-03	2.11315882e+00	2.36464670e+05	3.00000000e+02	2.55367646e+03	5.47566795e+06	1.89399516e+00	1.82098235e-05	2.16003396e-07	1.93334015e-16	6.37543091e-07
5.61781168e-01	1.29320011e-01	9.08203143e-03	2.19922307e+00	2.48278233e+05	3.00000000e+02	2.56695404e+03	5.69094262e+06	1.93719593e+00	1.82098235e-05	1.76281494e-07	1.90258684e-16	4.76868092e-07
5.64508617e-01	1.29320011e-01	2.92968761e-04	1.97095534e+00	2.25337098e+05	3.00000000e+02	2.29323522e+03	5.92158355e+06	1.73778360e+00	1.81636279e-05	1.17634651e-03	1.12435733e-12	1.09534746e-02
5.64508617e-01	1.29320011e-01	8.78906287e-04	1.96806820e+00	2.26484586e+05	3.00000000e+02	2.37593701e+03	6.08643130e+06	1.76707299e+00	1.81684820e-05	1.12502627e-03	1.25991031e-12	1.04675805e-02
5.64508617e-01	1.29320011e-01	1.46484381e-03	1.97363076e+00	2.28410519e+05	3.00000000e+02	2.44475664e+03	6.24172706e+06	1.79476327e+00	1.81710153e-05	9.94838728e-04	1.29474223e-12	9.20404504e-03
5.64508617e-01	1.29320011e-01	2.05078133e-03	1.98616393e+00	2.30900550e+05	3.00000000e+02	2.51856436e+03	6.35706095e+06	1.82613447e+00	1.81838950e-05	8.11907807e-04	1.18321240e-12	7.54651252e-03
5.65876871e-01	1.29320011e-01	2.63671891e-03	2.03476774e+00	2.38816553e+05	3.00000000e+02	2.65137359e+03	6.62224512e+06	1.89604286e+00	1.81878067e-05	6.24251882e-04	1.05335465e-12	6.16025912e-03
5.64508617e-01	1.29320011e-01	2.63671891e-03	1.99848874e+00	2.33330692e+05	3.00000000e+02	2.60680479e+03	6.48910063e+06	1.86319711e+00	1.81878725e-05	6.12078782e-04	1.00418049e-12	6.00571731e-03
5.65876872e-01	1.29320011e-01	3.22265644e-03	2.01386059e+00	2.36554722e+05	3.00000000e+02	2.73211000e+03	6.66261848e+06	1.91465478e+00	1.81890036e-05	4.34304268e-04	7.55243865e-13	4.34298945e-03
5.64508617e-01	1.29320011e-01	3.22265644e-03	2.00773862e+00	2.35283409e+05	3.00000000e+02	2.68599735e+03	6.60148518e+06	1.89539185e+00	1.81904300e-05	4.27339660e-04	7.46708088e-13	4.24689160e-03
5.67248166e-01	1.29320011e-01	3.80859396e-03	1.96709397e+00	2.30334912e+05	3.00000000e+02	2.82660045e+03	6.57823689e+06	1.92301544e+00	1.82052895e-05	2.94406084e-04	4.74487564e-13	3.16511556e-03
5.65876871e-01	1.29320011e-01	3.80859396e-03	1.99403598e+00	2.34194460e+05	3.00000000e+02	2.82736536e+03	6.65516174e+06	1.93625768e+00	1.82066442e-05	2.83966634e-04	5.05246025e-13	3.02027562e-03
5.64508617e-01	1.29320011e-01	3.80859396e-03	2.01297567e+00	2.36524155e+05	3.00000000e+02	2.78883543e+03	6.66629658e+06	1.93204518e+00	1.82074457e-05	2.78959247e-04	5.19092040e-13	2.92874714e-03
5.67248166e-01	1.29320011e-01	4.39453149e-03	1.93023723e+00	2.25265285e+05	3.00000000e+02	2.88430822e+03	6.50083608e+06	1.92371230e+00	1.82104909e-05	1.82277532e-04	2.85094197e-13	1.86477536e-03
5.65876872e-01	1.29320011e-01	4.39453149e-03	1.97371705e+00	2.31544945e+05	3.00000000e+02	2.89644990e+03	6.63527330e+06	1.94935534e+00	1.82104233e-05	1.74501127e-04	3.10769650e-13	1.72843479e-03
5.64508617e-01	1.29320011e-01	4.39453149e-03	2.01220384e+00	2.36747325e+05	3.00000000e+02	2.86814814e+03	6.71053316e+06	1.95863422e+00	1.82103811e-05	1.70022278e-04	3.28322289e-13	1.63273107e-03
5.67248166e-01	1.29320011e-01	4.98046889e-03	1.89997221e+00	2.20824593e+05	3.00000000e+02	2.90389713e+03	6.40554231e+06	1.91508762e+00	1.82100520e-05	1.06148654e-04	1.53549567e-13	9.40977877e-04
5.65876872e-01	1.29320011e-01	4.98046889e-03	1.95397920e+00	2.28664796e+05	3.00000000e+02	2.92967519e+03	6.58054518e+06	1.95071906e+00	1.82100263e-05	1.00504062e-04	1.69798688e-13	8.57905874e-04
5.64508617e-01	1.29320011e-01	4.98046889e-03	2.00659710e+00	2.36009627e+05	3.00000000e+02	2.91765498e+03	6.70996983e+06	1.97275203e+00	1.82100088e-05	9.66783677e-05	1.83335298e-13	7.95371584e-04
5.68622500e-01	1.29320011e-01	5.56640653e-03	1.83154027e+00	2.10140940e+05	3.00000000e+02	2.83393231e+03	6.08518983e+06	1.85750789e+00	1.82099143e-05	6.28954181e-05	6.75458048e-14	5.04464797e-04
5.67248166e-01	1.29320011e-01	5.56640653e-03	1.87751638e+00	2.17050258e+05	3.00000000e+02	2.89462603e+03	6.27504818e+06	1.90071100e+00	1.82099020e-05	5.80959225e-05	7.51785364e-14	4.47308779e-04
5.65876872e-01	1.29320011e-01	5.56640653e-03	1.93676059e+00	2.25695361e+05	3.00000000e+02	2.93450964e+03	6.47728609e+06	1.94372110e+00	1.82098927e-05	5.42893489e-05	8.38559460e-14	4.01102038e-04
5.64508617e-01	1.29320011e-01	5.56640653e-03	1.99871591e+00	2.34512408e+05	3.00000000e+02	2.94166270e+03	6.65158597e+06	1.97697120e+00	1.82098859e-05	5.14016404e-05	9.20114803e-14	3.64143907e-04
5.67248166e-01	1.29320011e-01	6.15234417e-03	1.86357369e+00	2.13942580e+05	3.00000000e+02	2.85538521e+03	6.10289818e+06	1.88076627e+00	1.82098516e-05	2.97414252e-05	3.33392876e-14	1.99955896e-04
5.65876872e-01	1.29320011e-01	6.15234417e-03	1.92415461e+00	2.22828326e+05	3.00000000e+02	2.90836252e+03	6.32130716e+06	1.92873926e+00	1.82098483e-05	2.73999865e-05	3.74028440e-14	1.76221467e-04
5.64508617e-01	1.29320011e-01	6.15234417e-03	1.99122450e+00	2.32503600e+05	3.00000000e+02	2.93527290e+03	6.52995815e+06	1.97112282e+00	1.82098457e-05	2.54870290e-05	4.14222010e-14	1.56429196e-04
5.67248166e-01	1.29320011e-01	6.73828158e-03	1.85780609e+00	2.11503119e+05	3.00000000e+02	2.79206501e+03	5.89636308e+06	1.85691730e+00	1.82098341e-05	1.41450975e-05	1.35170172e-14	8.34484857e-05
5.65876872e-01	1.29320011e-01	6.73828158e-03	1.91801304e+00	2.20284860e+05	3.00000000e+02	2.85272411e+03	6.11477308e+06	1.90715197e+00	1.82098329e-05	1.28361644e-05	1.50347506e-14	7.22076960e-05
5.64508617e-01	1.29320011e-01	6.73828158e-03	1.98710228e+00	2.30328292e+05	3.00000000e+02	2.89695695e+03	6.34550908e+06	1.95618891e+00	1.82098318e-05	1.17183162e-05	1.67185194e-14	6.26151948e-05
5.67248166e-01	1.29320011e-01	7.32421899e-03	1.85995932e+00	2.09736153e+05	3.00000000e+02	2.71053402e+03	5.66224330e+06	1.83066517e+00	1.82098275e-05	6.20434943e-06	5.03856583e-15	3.22712722e-05
5.65876872e-01	1.29320011e-01	7.32421899e-03	1.91914211e+00	2.18252159e+05	3.00000000e+02	2.77398018e+03	5.87064888e+06	1.88120022e+00	1.82098271e-05	5.54138581e-06	5.51298049e-15	2.73890356e-05
5.64508617e-01	1.29320011e-01	7.32421899e-03	1.98883466e+00	2.28309633e+05	3.00000000e+02	2.82789647e+03	6.10347727e+06	1.93357436e+00	1.82098266e-05	4.95867075e-06	6.07154727e-15	2.31706907e-05
5.67248166e-01	1.29320011e-01	7.91015662e-03	1.86955167e+00	2.08579548e+05	3.00000000e+02	2.61272432e+03	5.40294488e+06	1.80196087e+00	1.82098250e-05	2.49963557e-06	1.73040704e-15	1.15393884e-05
5.65876871e-01	1.29320011e-01	7.91015662e-03	1.92784241e+00	2.16803293e+05	3.00000000e+02	2.67534943e+03	5.59648744e+06	1.85163701e+00	1.82098248e-05	2.19553798e-06	1.85854933e-15	9.60162609e-06
5.64508617e-01	1.29320011e-01	7.91015662e-03	1.99760063e+00	2.26702406e+05	3.00000000e+02	2.73294054e+03	5.81963004e+06	1.90501877e+00	1.82098246e-05	1.92371299e-06	2.01215777e-15	7.92018211e-06
5.67248166e-01	1.29320011e-01	8.49609403e-03	1.88549078e+00	2.07982470e+05	3.00000000e+02	2.50274264e+03	5.13011918e+06	1.77112883e+00	1.82098239e-05	9.32186724e-07	5.45316988e-16	3.84022194e-06
5.65876871e-01	1.29320011e-01	8.49609403e-03	1.94354792e+00	2.15986947e+05	3.00000000e+02	2.56228362e+03	5.30853071e+06	1.81945399e+00	1.82098239e-05	8.05307933e-07	5.71970198e-16	3.13553004e-06
5.64508617e-01	1.29320011e-01	8.49609403e-03	2.01345993e+00	2.25699987e+05	3.00000000e+02	2.61918426e+03	5.51780772e+06	1.87233853e+00	1.82098238e-05	6.91225479e-07	6.03017637e-16	2.52657888e-06
5.67248166e-01	1.29320011e-01	9.08203144e-03	1.90398217e+00	2.07832278e+05	3.00000000e+02	2.39631776e+03	4.88115086e+06	1.74154018e+00	1.82098236e-05	3.66282507e-07	1.76819344e-16	1.32610487e-06
5.65876872e-01	1.29320011e-01	9.08203144e-03	1.96199267e+00	2.15694183e+05	3.00000000e+02	2.45334512e+03	5.04994128e+06	1.78878388e+00	1.82098236e-05	3.10779588e-07	1.81935437e-16	1.05938536e-06
5.64508617e-01	1.29320011e-01	9.08203143e-03	2.03184480e+00	2.25256097e+05	3.00000000e+02	2.50958201e+03	5.25064417e+06	1.84109340e+00	1.82098235e-05	2.60799981e-07	1.88436150e-16	8.30974808e-07
5.57712704e-01	1.29320011e-01	1.46484381e-03	1.72208167e+00	1.94544877e+05	3.00000000e+02	2.49174751e+03	5.64020899e+06	1.69102355e+00	1.81871576e-05	7.66124626e-04	9.06951006e-13	7.06194327e-03
5.56362570e-01	1.29320011e-01	1.46484381e-03	1.72044358e+00	1.94365685e+05	3.00000000e+02	2.51307714e+03	5.64619721e+06	1.69730099e+00	1.81886246e-05	7.18179857e-04	8.89832814e-13	6.66306676e-03
5.57712704e-01	1.29320011e-01	2.05078133e-03	1.72775716e+00	1.95934365e+05	3.00000000e+02	2.53991510e+03	5.75087636e+06	1.70991931e+00	1.81890883e-05	6.38353619e-04	8.55487989e-13	6.00445046e-03
5.56362569e-01	1.29320011e-01	2.05078133e-03	1.72354061e+00	1.95358437e+05	3.00000000e+02	2.55109212e+03	5.74503125e+06	1.71162922e+00	1.81886195e-05	5.93878384e-04	8.18783424e-13	5.53080303e-03
5.57712704e-01	1.29320011e-01	2.63671891e-03	1.73922530e+00	1.97801273e+05	3.00000000e+02	2.56431704e+03	5.84208257e+06	1.72396354e+00	1.81874286e-05	4.93435368e-04	7.00984594e-13	4.59317195e-03
5.56362569e-01	1.29320011e-01	2.63671891e-03	1.73077586e+00	1.96648978e+05	3.00000000e+02	2.57610971e+03	5.81920383e+06	1.72350226e+00	1.81897333e-05	4.55404709e-04	6.57358169e-13	4.21334619e-03
5.57712704e-01	1.29320011e-01	3.22265644e-03	1.75851385e+00	2.00573462e+05	3.00000000e+02	2.60626842e+03	5.91255017e+06	1.74624393e+00	1.82017504e-05	3.55870204e-04	5.35820812e-13	3.42222969e-03
5.56362569e-01	1.29320011e-01	3.22265643e-03	1.74325699e+00	1.98530323e+05	3.00000000e+02	2.61878437e+03	5.87396884e+06	1.74246263e+00	1.82055038e-05	3.25888107e-04	5.00134107e-13	3.09276618e-03
5.55015445e-01	1.29320011e-01	3.22265643e-03	1.73521848e+00	1.97375377e+05	3.00000000e+02	2.62876533e+03	5.84364369e+06	1.74141397e+00	1.82090197e-05	2.95360480e-04	4.61386741e-13	2.73157424e-03
5.53671300e-01	1.29320011e-01	3.22265643e-03	1.73222263e+00	1.96834013e+05	3.00000000e+02	2.63808077e+03	5.82016529e+06	1.74279985e+00	1.82110079e-05	2.65312595e-04	4.22566864e-13	2.34355327e-03
5.57712704e-01	1.29320011e-01	3.80859396e-03	1.78643706e+00	2.04276240e+05	3.00000000e+02	2.63610966e+03	5.98012090e+06	1.76921822e+00	1.82108321e-05	2.38754960e-04	3.76919391e-13	2.20214090e-03
5.56362569e-01	1.29320011e-01	3.80859396e-03	1.76171858e+00	2.00923988e+05	3.00000000e+02	2.64055476e+03	5.91841272e+06	1.75843590e+00	1.82106275e-05	2.16809142e-04	3.41133259e-13	1.89230675e-03
5.55015445e-01	1.29320011e-01	3.80859396e-03	1.74715748e+00	1.98856194e+05	3.00000000e+02	2.64185090e+03	5.87089579e+06	1.75160107e+00	1.82104456e-05	1.93921615e-04	3.04033651e-13	1.58872920e-03
5.53671301e-01	1.29320011e-01	3.80859396e-03	1.73848100e+00	1.97543977e+05	3.00000000e+02	2.64242117e+03	5.83323060e+06	1.74744954e+00	1.82102936e-05	1.71315971e-04	2.67644810e-13	1.30470548e-03
5.52330107e-01	1.29320011e-01	3.80859396e-03	1.73365889e+00	1.96723915e+05	3.00000000e+02	2.64263977e+03	5.80175862e+06	1.74510815e+00	1.82101725e-05	1.49732254e-04	2.32960995e-13	1.05031157e-03
5.50991893e-01	1.29320011e-01	3.80859396e-03	1.73147014e+00	1.96243414e+05	3.00000000e+02	2.64385000e+03	5.77494164e+06	1.74441434e+00	1.82100801e-05	1.29726003e-04	2.01287195e-13	8.32568673e-04
5.57712704e-01	1.29320011e-01	4.39453149e-03	1.82407490e+00	2.09122734e+05	3.00000000e+02	2.64257892e+03	6.05717111e+06	1.79001334e+00	1.82101971e-05	1.47702976e-04	2.34425011e-13	1.17268994e-03
5.56362569e-01	1.29320011e-01	4.39453148e-03	1.78689978e+00	2.04066374e+05	3.00000000e+02	2.64249110e+03	5.96205447e+06	1.77165687e+00	1.82101217e-05	1.33261747e-04	2.05900658e-13	9.93251286e-04
5.55015445e-01	1.29320011e-01	4.39453149e-03	1.76365451e+00	2.00816041e+05	3.00000000e+02	2.63882204e+03	5.89029543e+06	1.75887994e+00	1.82100529e-05	1.17676183e-04	1.77518105e-13	8.15240396e-04
5.53671300e-01	1.29320011e-01	4.39453149e-03	1.74792981e+00	1.98524314e+05	3.00000000e+02	2.63379093e+03	5.82958193e+06	1.74935679e+00	1.82099958e-05	1.02212106e-04	1.50437996e-13	6.52708246e-04
5.52330107e-01	1.29320011e-01	4.39453149e-03	1.73662252e+00	1.96808003e+05	3.00000000e+02	2.63014378e+03	5.77700861e+06	1.74248591e+00	1.82099512e-05	8.75908073e-05	1.25965660e-13	5.11710978e-04
5.50991893e-01	1.29320011e-01	4.39453149e-03	1.72887965e+00	1.95579212e+05	3.00000000e+02	2.63019396e+03	5.73419292e+06	1.73861686e+00	1.82099176e-05	7.42750248e-05	1.04994228e-13	3.94338546e-04
5.49656689e-01	1.29320011e-01	4.39453148e-03	1.72551893e+00	1.94972761e+05	3.00000000e+02	2.63680028e+03	5.70686718e+06	1.73910852e+00	1.82098931e-05	6.25271170e-05	8.79539029e-14	3.00005393e-04
5.48324435e-01	1.29320011e-01	4.39453149e-03	1.72938161e+00	1.95395475e+05	3.00000000e+02	2.65197199e+03	5.70613088e+06	1.74605736e+00	1.82098755e-05	5.23980476e-05	7.49408731e-14	2.26092169e-04
5.60422003e-01	1.29320011e-01	4.98046889e-03	2.01113658e+00	2.34909927e+05	3.00000000e+02	2.71065311e+03	6.53336293e+06	1.90363555e+00	1.82099832e-05	9.22988655e-05	1.71147271e-13	6.80348228e-04
5.59065848e-01	1.29320011e-01	4.98046889e-03	1.94355486e+00	2.25121809e+05	3.00000000e+02	2.65742621e+03	6.32126837e+06	1.85291435e+00	1.82099713e-05	8.95013542e-05	1.51810978e-13	6.31628009e-04
5.57712704e-01	1.29320011e-01	4.98046889e-03	1.87219061e+00	2.15272835e+05	3.00000000e+02	2.63989187e+03	6.13773168e+06	1.81257046e+00	1.82099520e-05	8.37104934e-05	1.31657220e-13	5.59756645e-04
5.56362569e-01	1.29320011e-01	4.98046889e-03	1.81992439e+00	2.08111021e+05	3.00000000e+02	2.63371881e+03	6.00079712e+06	1.78500212e+00	1.82099283e-05	7.53110243e-05	1.11836789e-13	4.71311180e-04
5.55015445e-01	1.29320011e-01	4.98046889e-03	1.78556210e+00	2.03327340e+05	3.00000000e+02	2.62587816e+03	5.89765773e+06	1.76543883e+00	1.82099053e-05	6.57781531e-05	9.31309281e-14	3.80964713e-04
5.53671301e-01	1.29320011e-01	4.98046889e-03	1.76113576e+00	1.99836236e+05	3.00000000e+02	2.61658029e+03	5.81098383e+06	1.75021670e+00	1.82098859e-05	5.62267368e-05	7.60499954e-14	2.98608389e-04
5.52330107e-01	1.29320011e-01	4.98046889e-03	1.74218835e+00	1.97080920e+05	3.00000000e+02	2.61015727e+03	5.73633822e+06	1.73863985e+00	1.82098705e-05	4.72712708e-05	6.13704057e-14	2.28365356e-04
5.50991893e-01	1.29320011e-01	4.98046889e-03	1.72819429e+00	1.95025797e+05	3.00000000e+02	2.60991475e+03	5.67776985e+06	1.73156365e+00	1.82098588e-05	3.92549496e-05	4.94899569e-14	1.71317040e-04
5.49656689e-01	1.29320011e-01	4.98046889e-03	1.72070267e+00	1.93896506e+05	3.00000000e+02	2.61778871e+03	5.64260650e+06	1.73041166e+00	1.82098502e-05	3.23328519e-05	4.03586693e-14	1.26756617e-04
5.48324436e-01	1.29320011e-01	4.98046889e-03	1.72186729e+00	1.93989801e+05	3.00000000e+02	2.63369523e+03	5.63837395e+06	1.73624885e+00	1.82098439e-05	2.64970602e-05	3.36212524e-14	9.28648602e-05
5.60422003e-01	1.29320011e-01	5.56640653e-03	2.06404952e+00	2.42266384e+05	3.00000000e+02	2.75464652e+03	6.66124515e+06	1.94411349e+00	1.82098755e-05	4.72666600e-05	9.14882866e-14	2.93918323e-04
5.59065848e-01	1.29320011e-01	5.56640653e-03	2.00823569e+00	2.33800301e+05	3.00000000e+02	2.67739429e+03	6.45369554e+06	1.89056756e+00	1.82098724e-05	4.59049861e-05	8.02593907e-14	2.71947337e-04
5.57712704e-01	1.29320011e-01	5.56640653e-03	1.93011735e+00	2.22636264e+05	3.00000000e+02	2.63400643e+03	6.22058916e+06	1.83835376e+00	1.82098674e-05	4.31982442e-05	6.73759928e-14	2.41763957e-04
5.56362569e-01	1.29320011e-01	5.56640653e-03	1.86162248e+00	2.13153805e+05	3.00000000e+02	2.61795289e+03	6.03619186e+06	1.79993034e+00	1.82098605e-05	3.89053703e-05	5.51193675e-14	2.03191865e-04
5.55015445e-01	1.29320011e-01	5.56640653e-03	1.81370554e+00	2.06474293e+05	3.00000000e+02	2.60484018e+03	5.89368471e+06	1.77216061e+00	1.82098533e-05	3.37038564e-05	4.41400333e-14	1.62226481e-04
5.53671301e-01	1.29320011e-01	5.56640653e-03	1.77881713e+00	2.01549096e+05	3.00000000e+02	2.59158390e+03	5.77772837e+06	1.75056238e+00	1.82098469e-05	2.84081884e-05	3.47167253e-14	1.24740311e-04
5.52330107e-01	1.29320011e-01	5.56640653e-03	1.75122553e+00	1.97630579e+05	3.00000000e+02	2.58259411e+03	5.67995470e+06	1.73391797e+00	1.82098416e-05	2.34713699e-05	2.70456487e-14	9.32332699e-05
5.50991893e-01	1.29320011e-01	5.56640653e-03	1.73030963e+00	1.94670348e+05	3.00000000e+02	2.58177508e+03	5.60512172e+06	1.72325935e+00	1.82098374e-05	1.91203889e-05	2.11641401e-14	6.82443446e-05
5.49656689e-01	1.29320011e-01	5.56640653e-03	1.71789946e+00	1.92917715e+05	3.00000000e+02	2.58982488e+03	5.56045168e+06	1.71974350e+00	1.82098342e-05	1.54333439e-05	1.68525423e-14	4.92369170e-05
5.48324435e-01	1.29320011e-01	5.56640653e-03	1.71493182e+00	1.92487481e+05	3.00000000e+02	2.60463689e+03	5.54847214e+06	1.72316429e+00	1.82098318e-05	1.23876689e-05	1.37564759e-14	3.51748248e-05
5.60422003e-01	1.29320011e-01	6.15234417e-03	2.10977407e+00	2.48335364e+05	3.00000000e+02	2.79137873e+03	6.73547019e+06	1.97859447e+00	1.82098414e-05	2.21898998e-05	4.38115564e-14	1.16752691e-04
5.59065848e-01	1.29320011e-01	6.15234417e-03	2.07141436e+00	2.42132443e+05	3.00000000e+02	2.69823017e+03	6.55815582e+06	1.92753577e+00	1.82098404e-05	2.14005017e-05	3.83816649e-14	1.06368874e-04