VARIABLES ="X" "Y" "Z" "rho" "press" "temp" "tau_wall" "qdot" "yplus" "muLam" "ZMean" "ZVar" "CMean" 
Zone T ="wall" I = 8632 , F = point
3.98084551e-01	1.29320011e-01	4.31332365e-04	1.16572625e+00	1.34578758e+05	3.00000000e+02	1.86271792e+03	3.74711903e+06	1.96556405e+00	1.11306424e-05	3.30358926e-44	6.83469214e-51	8.22549123e-44
3.98763859e-01	1.29320011e-01	3.76781197e-04	1.18304581e+00	1.37080486e+05	3.00000000e+02	1.86711247e+03	3.80231026e+06	1.98244609e+00	1.11306424e-05	7.38414441e-44	1.68286133e-50	1.79791158e-43
3.98990275e-01	1.29320011e-01	8.87797211e-03	1.19105094e+00	1.38253526e+05	3.00000000e+02	1.86978204e+03	3.82910771e+06	1.99056345e+00	1.11306424e-05	-5.81674949e-36	-1.16570436e-42	-5.59110226e-35
3.98157331e-01	1.29320011e-01	8.89711205e-03	1.16733975e+00	1.34810537e+05	3.00000000e+02	1.86302240e+03	3.75218644e+06	1.96708461e+00	1.11306424e-05	7.69326909e-38	-2.45754045e-44	-2.57479572e-36
3.98157350e-01	1.29320011e-01	7.93788339e-03	1.16734733e+00	1.34811294e+05	3.00000000e+02	1.86301312e+03	3.75217327e+06	1.96708610e+00	1.11306424e-05	-1.37419410e-37	-3.30541176e-44	-2.38127167e-36
3.98156469e-01	1.29320011e-01	6.97306857e-03	1.16733488e+00	1.34809652e+05	3.00000000e+02	1.86304421e+03	3.75215058e+06	1.96709202e+00	1.11306424e-05	-6.69346945e-38	-1.23992416e-44	-7.81779991e-37
3.98147231e-01	1.29320011e-01	6.00566947e-03	1.16714401e+00	1.34782461e+05	3.00000000e+02	1.86304146e+03	3.75157720e+06	1.96692975e+00	1.11306424e-05	5.73561954e-39	1.43709214e-45	-4.15769303e-38
3.98128521e-01	1.29320011e-01	5.04379655e-03	1.16673230e+00	1.34723495e+05	3.00000000e+02	1.86297987e+03	3.75030468e+06	1.96655029e+00	1.11306424e-05	1.71763306e-39	3.96462966e-46	7.19187899e-40
3.98108284e-01	1.29320011e-01	4.09326380e-03	1.16627342e+00	1.34657836e+05	3.00000000e+02	1.86291327e+03	3.74889220e+06	1.96612839e+00	1.11306424e-05	2.31861698e-40	5.26403410e-47	3.61910377e-40
3.98094881e-01	1.29320011e-01	3.15140987e-03	1.16597252e+00	1.34614674e+05	3.00000000e+02	1.86286511e+03	3.74795356e+06	1.96584932e+00	1.11306424e-05	2.56324195e-41	5.71205061e-48	5.10545981e-41
3.98082872e-01	1.29320011e-01	2.22717910e-03	1.16570552e+00	1.34576235e+05	3.00000000e+02	1.86279434e+03	3.74710456e+06	1.96558689e+00	1.11306424e-05	2.64441344e-42	5.76614627e-49	5.87927912e-42
3.98072531e-01	1.29320011e-01	1.32236159e-03	1.16545303e+00	1.34539896e+05	3.00000000e+02	1.86270197e+03	3.74630269e+06	1.96532528e+00	1.11306424e-05	2.70795511e-43	5.75702939e-50	6.43545416e-43
3.98740624e-01	1.29320011e-01	1.15437550e-03	1.18215305e+00	1.36954212e+05	3.00000000e+02	1.86716662e+03	3.79979934e+06	1.98172670e+00	1.11306424e-05	5.05821803e-43	1.18422931e-49	1.16632973e-42
3.98992297e-01	1.29320011e-01	7.87554372e-03	1.19113582e+00	1.38265789e+05	3.00000000e+02	1.86978507e+03	3.82937081e+06	1.99063599e+00	1.11306424e-05	-8.06706899e-36	-1.50654330e-42	-5.30517672e-35
3.98989360e-01	1.29320011e-01	6.84723543e-03	1.19100850e+00	1.38246691e+05	3.00000000e+02	1.86970535e+03	3.82889932e+06	1.99048716e+00	1.11306424e-05	-3.24504315e-36	-6.52699447e-43	-1.78021894e-35
3.98956795e-01	1.29320011e-01	5.80774781e-03	1.18980793e+00	1.38070883e+05	3.00000000e+02	1.86942772e+03	3.82491583e+06	1.98933597e+00	1.11306424e-05	-1.27765908e-37	-2.69248167e-44	-9.12356698e-37
3.98894045e-01	1.29320011e-01	4.79219082e-03	1.18756316e+00	1.37741491e+05	3.00000000e+02	1.86868667e+03	3.81737234e+06	1.98706452e+00	1.11306424e-05	-2.14629504e-41	1.01093795e-46	-2.23215882e-38
3.98834125e-01	1.29320011e-01	3.82109993e-03	1.18546940e+00	1.37434748e+05	3.00000000e+02	1.86799128e+03	3.81036450e+06	1.98494264e+00	1.11306424e-05	3.44134456e-40	8.91973297e-47	2.22124922e-41
3.98803442e-01	1.29320011e-01	2.87505281e-03	1.18440591e+00	1.37279514e+05	3.00000000e+02	1.86761594e+03	3.80685827e+06	1.98385276e+00	1.11306424e-05	4.18295804e-41	1.04019704e-47	6.82082044e-41
3.98772866e-01	1.29320011e-01	1.98281551e-03	1.18334604e+00	1.37125068e+05	3.00000000e+02	1.86722559e+03	3.80338627e+06	1.98275766e+00	1.11306424e-05	4.54583498e-42	1.09805158e-48	9.47561875e-42
3.99830293e-01	1.29320011e-01	6.70386293e-03	1.22656090e+00	1.43505361e+05	3.00000000e+02	1.88396209e+03	3.94891565e+06	2.02766413e+00	1.11306424e-05	-8.01841898e-35	-1.65883916e-41	-3.63638137e-34
3.99760412e-01	1.29320011e-01	5.56079445e-03	1.22296737e+00	1.42968755e+05	3.00000000e+02	1.88231399e+03	3.93656014e+06	2.02380574e+00	1.11306424e-05	-2.85188480e-36	-6.61365497e-43	-1.42832354e-35
3.99626007e-01	1.29320011e-01	4.48645354e-03	1.21630737e+00	1.41975747e+05	3.00000000e+02	1.87968136e+03	3.91362933e+06	2.01687579e+00	1.11306424e-05	-4.87202147e-38	-1.22664238e-44	-2.96307010e-37
3.99366003e-01	1.29320011e-01	3.20609185e-04	1.20454928e+00	1.40227209e+05	3.00000000e+02	1.87420194e+03	3.87302723e+06	2.00417595e+00	1.11306424e-05	1.49807547e-43	3.86427040e-50	3.43670809e-43
3.99813265e-01	1.29320011e-01	8.86223657e-03	1.22562864e+00	1.43365570e+05	3.00000000e+02	1.88361589e+03	3.94565563e+06	2.02670710e+00	1.11306424e-05	-1.46789018e-34	-2.30770148e-41	-8.81850398e-34
3.99358844e-01	1.29320011e-01	9.82319825e-04	1.20360495e+00	1.40097012e+05	3.00000000e+02	1.87458433e+03	3.87083792e+06	2.00359458e+00	1.11306424e-05	8.67409002e-43	2.30943914e-49	1.78451315e-42
3.99825602e-01	1.29320011e-01	7.81824577e-03	1.22631215e+00	1.43468900e+05	3.00000000e+02	1.88395839e+03	3.94813539e+06	2.02745645e+00	1.11306424e-05	-1.86891383e-34	-3.38535204e-41	-9.55697723e-34
3.99448470e-01	1.29320011e-01	1.71356297e-03	1.20795989e+00	1.40747051e+05	3.00000000e+02	1.87694764e+03	3.88624754e+06	2.00848085e+00	1.11306424e-05	7.18699031e-42	2.01091249e-48	9.70560712e-42
4.00701928e-01	1.29320011e-01	6.54153445e-03	1.27482356e+00	1.50790833e+05	3.00000000e+02	1.90960518e+03	4.11618197e+06	2.08119230e+00	1.11306424e-05	-1.57015273e-33	-3.20181537e-40	-6.40834163e-33
4.00625823e-01	1.29320011e-01	8.85650859e-03	1.27008009e+00	1.50054274e+05	3.00000000e+02	1.90588291e+03	4.09820009e+06	2.07529112e+00	1.11306424e-05	-2.11326558e-33	-2.91154685e-40	-1.01129473e-32
4.00659207e-01	1.29320011e-01	7.78960319e-03	1.27223561e+00	1.50383867e+05	3.00000000e+02	1.90724681e+03	4.10586493e+06	2.07779448e+00	1.11306424e-05	-2.89361912e-33	-5.00654367e-40	-1.28704479e-32
4.01426319e-01	1.29320011e-01	8.86874864e-03	1.31956958e+00	1.57640796e+05	3.00000000e+02	1.93636883e+03	4.26981346e+06	2.13218829e+00	1.11306424e-05	-2.12300634e-32	-2.60709942e-39	-8.69618919e-32
4.01483184e-01	1.29320011e-01	7.83573494e-03	1.32327896e+00	1.58217868e+05	3.00000000e+02	1.93904839e+03	4.28299352e+06	2.13665987e+00	1.11306424e-05	-2.57362160e-32	-4.11409724e-39	-1.02394490e-31
3.99522936e-01	1.29320011e-01	3.51580643e-03	1.21144112e+00	1.41252861e+05	3.00000000e+02	1.87758266e+03	3.89700340e+06	2.01171310e+00	1.11306424e-05	-4.13555471e-40	-9.77076407e-47	-5.92718367e-39
3.99887749e-01	1.29320011e-01	2.64434756e-04	1.22834656e+00	1.43757307e+05	3.00000000e+02	1.88381757e+03	3.95347223e+06	2.02906169e+00	1.11306424e-05	2.72842221e-43	8.04636250e-50	5.50044917e-43
3.99891365e-01	1.29320011e-01	8.00501255e-04	1.22696623e+00	1.43565137e+05	3.00000000e+02	1.88421053e+03	3.95022540e+06	2.02813280e+00	1.11306424e-05	1.22600079e-42	3.69479412e-49	1.85536940e-42
4.00149515e-01	1.29320011e-01	3.21801778e-03	1.24159859e+00	1.45750664e+05	3.00000000e+02	1.89094701e+03	3.99982850e+06	2.04383411e+00	1.11306424e-05	-9.59709096e-39	-2.83546677e-45	-5.29845959e-38
3.99502698e-01	1.29320011e-01	2.55761362e-03	1.21044043e+00	1.41109548e+05	3.00000000e+02	1.87749276e+03	3.89414170e+06	2.01083398e+00	1.11306424e-05	4.26980358e-41	1.25479663e-47	-7.02041742e-41
4.00565142e-01	1.29320011e-01	5.23499568e-03	1.26644349e+00	1.49510875e+05	3.00000000e+02	1.90499657e+03	4.08651109e+06	2.07183591e+00	1.11306424e-05	-4.04888819e-35	-9.66079485e-42	-1.75962758e-34
4.00295727e-01	1.29320011e-01	4.10975821e-03	1.25004576e+00	1.47014129e+05	3.00000000e+02	1.89480570e+03	4.02812342e+06	2.05286629e+00	1.11306424e-05	-4.86116158e-37	-1.35158329e-43	-2.29001002e-36
4.00333835e-01	1.29320011e-01	2.19278185e-04	1.25237358e+00	1.47368241e+05	3.00000000e+02	1.89527737e+03	4.03647060e+06	2.05503260e+00	1.11306424e-05	4.56080827e-43	1.54705227e-49	7.06681894e-43
4.00713803e-01	1.29320011e-01	1.91643173e-04	1.27510380e+00	1.50821033e+05	3.00000000e+02	1.90749610e+03	4.11588117e+06	2.08027132e+00	1.11306424e-05	7.09313136e-43	2.77692314e-49	6.10575275e-43
4.01041425e-01	1.29320011e-01	1.74785554e-04	1.29598242e+00	1.54019627e+05	3.00000000e+02	1.91974478e+03	4.18910473e+06	2.10395618e+00	1.11306424e-05	1.03279435e-42	4.66949130e-49	-5.29013328e-44
4.01326875e-01	1.29320011e-01	1.62980309e-04	1.31474259e+00	1.56914952e+05	3.00000000e+02	1.93170847e+03	4.25503695e+06	2.12572238e+00	1.11306424e-05	1.41913177e-42	7.39592050e-49	-1.66359123e-42
4.01577240e-01	1.29320011e-01	1.53746752e-04	1.33127170e+00	1.59482440e+05	3.00000000e+02	1.94322053e+03	4.31321313e+06	2.14540737e+00	1.11306424e-05	1.85750284e-42	1.11152824e-48	-4.62916190e-42
4.01798611e-01	1.29320011e-01	1.46214405e-04	1.34565637e+00	1.61726415e+05	3.00000000e+02	1.95376759e+03	4.36361667e+06	2.16281201e+00	1.11306424e-05	2.33955261e-42	1.60197846e-48	-9.42613272e-42
4.01802280e-01	1.29320011e-01	4.30387848e-04	1.34454622e+00	1.61480216e+05	3.00000000e+02	1.94859184e+03	4.35268380e+06	2.15905788e+00	1.11306424e-05	-4.84910856e-45	2.41828538e-48	-7.54974216e-41
4.01825407e-01	1.29320011e-01	7.14308794e-04	1.34612627e+00	1.61763863e+05	3.00000000e+02	1.95083636e+03	4.36178240e+06	2.16156283e+00	1.11306424e-05	-4.16052377e-41	-5.50854551e-48	-5.08509835e-40
4.01864389e-01	1.29320011e-01	9.96278638e-04	1.34827311e+00	1.62100473e+05	3.00000000e+02	1.95474776e+03	4.36935988e+06	2.16546262e+00	1.11306424e-05	-3.28025571e-40	-7.72791431e-47	-2.65620093e-39
4.01916858e-01	1.29320011e-01	1.27666037e-03	1.35114340e+00	1.62580955e+05	3.00000000e+02	1.95732589e+03	4.38243568e+06	2.16918421e+00	1.11306424e-05	-1.11532930e-39	-3.35517186e-46	-7.61003914e-39
4.01982431e-01	1.29320011e-01	1.55635410e-03	1.35503315e+00	1.63182427e+05	3.00000000e+02	1.96185335e+03	4.39523828e+06	2.17482736e+00	1.11306424e-05	-5.08786146e-39	-1.99359785e-45	-2.69162660e-38
4.00331847e-01	1.29320011e-01	6.51792460e-04	1.25006393e+00	1.47023860e+05	3.00000000e+02	1.89434511e+03	4.02891390e+06	2.05263167e+00	1.11306424e-05	1.55308033e-42	5.37631759e-49	7.57650413e-43
4.00697026e-01	1.29320011e-01	5.69093605e-04	1.27178384e+00	1.50301024e+05	3.00000000e+02	1.90454492e+03	4.10285206e+06	2.07595352e+00	1.11306424e-05	1.81264455e-42	7.52629234e-49	-2.69120170e-42
4.01015860e-01	1.29320011e-01	5.20769240e-04	1.29216948e+00	1.53403436e+05	3.00000000e+02	1.91520806e+03	4.17267895e+06	2.09837495e+00	1.11306424e-05	1.89325858e-42	1.02535886e-48	-1.01804187e-41
4.01302360e-01	1.29320011e-01	4.85786490e-04	1.31115098e+00	1.56314232e+05	3.00000000e+02	1.92621278e+03	4.23794990e+06	2.11979510e+00	1.11306424e-05	1.67844625e-42	1.37284185e-48	-2.35003429e-41
4.01562979e-01	1.29320011e-01	4.56683981e-04	1.32860836e+00	1.59007732e+05	3.00000000e+02	1.93717415e+03	4.29795505e+06	2.13992381e+00	1.11306424e-05	1.07242162e-42	1.82404326e-48	-4.45681664e-41
4.01576131e-01	1.29320011e-01	7.57570889e-04	1.32977808e+00	1.59219415e+05	3.00000000e+02	1.93992879e+03	4.30497812e+06	2.14238619e+00	1.11306424e-05	-2.70015649e-41	-3.54909819e-48	-3.46327518e-40
4.01607475e-01	1.29320011e-01	1.05460224e-03	1.33161419e+00	1.59506222e+05	3.00000000e+02	1.94167070e+03	4.31152542e+06	2.14482789e+00	1.11306424e-05	-2.62297149e-40	-6.12524196e-47	-2.08204423e-39
4.01649183e-01	1.29320011e-01	1.35152728e-03	1.33383213e+00	1.59884890e+05	3.00000000e+02	1.94613202e+03	4.32256039e+06	2.14907706e+00	1.11306424e-05	-8.09870866e-40	-2.27001747e-46	-5.60495075e-39
4.01700503e-01	1.29320011e-01	1.65466373e-03	1.33695120e+00	1.60365141e+05	3.00000000e+02	1.94735794e+03	4.33292120e+06	2.15226668e+00	1.11306424e-05	-3.05821828e-39	-1.13041122e-45	-1.68327417e-38
4.01311667e-01	1.29320011e-01	8.02407610e-04	1.31224365e+00	1.56498412e+05	3.00000000e+02	1.92768808e+03	4.24329970e+06	2.12148997e+00	1.11306424e-05	-1.51565850e-41	-1.81755620e-48	-2.19921454e-40
4.01339950e-01	1.29320011e-01	1.10971827e-03	1.31397833e+00	1.56776122e+05	3.00000000e+02	1.93017601e+03	4.25031849e+06	2.12426126e+00	1.11306424e-05	-2.05199621e-40	-4.82688124e-47	-1.59792331e-39
4.01369472e-01	1.29320011e-01	1.41848190e-03	1.31553351e+00	1.57042474e+05	3.00000000e+02	1.93324988e+03	4.25831598e+06	2.12720969e+00	1.11306424e-05	-5.79438818e-40	-1.54357114e-46	-4.03423460e-39
4.01398105e-01	1.29320011e-01	1.74520517e-03	1.31712003e+00	1.57301164e+05	3.00000000e+02	1.93478615e+03	4.26516695e+06	2.12933757e+00	1.11306424e-05	-1.70823436e-39	-5.85924416e-46	-9.88550419e-39
4.01445442e-01	1.29320011e-01	2.09890241e-03	1.32014088e+00	1.57760822e+05	3.00000000e+02	1.93596000e+03	4.27492086e+06	2.13242451e+00	1.11306424e-05	-1.56213584e-38	-5.91363701e-45	-7.21259551e-38
4.01528179e-01	1.29320011e-01	2.47246120e-03	1.32566984e+00	1.58608886e+05	3.00000000e+02	1.93891875e+03	4.29332323e+06	2.13851768e+00	1.11306424e-05	-2.37292083e-37	-8.38165845e-44	-1.01232747e-36
3.99999583e-01	1.29320011e-01	1.36280784e-03	1.23275443e+00	1.44436285e+05	3.00000000e+02	1.88683696e+03	3.97068427e+06	2.03432736e+00	1.11306424e-05	6.09218051e-42	1.87233613e-48	-6.39680485e-42
4.00408432e-01	1.29320011e-01	1.04626203e-03	1.25464906e+00	1.47710508e+05	3.00000000e+02	1.89566779e+03	4.04419796e+06	2.05711044e+00	1.11306424e-05	3.66348610e-42	1.39136764e-48	-2.79860390e-41
4.00734948e-01	1.29320011e-01	9.14404602e-04	1.27450651e+00	1.50713232e+05	3.00000000e+02	1.90535377e+03	4.11208716e+06	2.07861574e+00	1.11306424e-05	-1.09370213e-43	6.79809559e-49	-6.52439018e-41
4.01031568e-01	1.29320011e-01	8.51016215e-04	1.29369879e+00	1.53641818e+05	3.00000000e+02	1.91602322e+03	4.17839690e+06	2.10006308e+00	1.11306424e-05	-6.24500800e-42	-3.90225319e-49	-1.27679080e-40
4.01068564e-01	1.29320011e-01	1.15715748e-03	1.29615396e+00	1.54032118e+05	3.00000000e+02	1.91913756e+03	4.18831187e+06	2.10376258e+00	1.11306424e-05	-1.55662832e-40	-3.72686766e-47	-1.19653265e-39
4.01083480e-01	1.29320011e-01	1.46543269e-03	1.29692882e+00	1.54172540e+05	3.00000000e+02	1.92143546e+03	4.19316422e+06	2.10565067e+00	1.11306424e-05	-3.96963655e-40	-1.03090281e-46	-2.77253819e-39
4.01069108e-01	1.29320011e-01	1.81262047e-03	1.29579293e+00	1.54015808e+05	3.00000000e+02	1.92162670e+03	4.19098386e+06	2.10483313e+00	1.11306424e-05	-8.55880915e-40	-2.67268121e-46	-5.28755375e-39
4.01079290e-01	1.29320011e-01	2.22562523e-03	1.29637212e+00	1.54092105e+05	3.00000000e+02	1.92054497e+03	4.19173255e+06	2.10471079e+00	1.11306424e-05	-7.09223912e-39	-2.53982564e-45	-3.40777513e-38
4.01149426e-01	1.29320011e-01	2.69372971e-03	1.30102725e+00	1.54800188e+05	3.00000000e+02	1.92299513e+03	4.20721787e+06	2.10983093e+00	1.11306424e-05	-1.33388747e-37	-4.52937661e-44	-5.80844082e-37
4.00560322e-01	1.29320011e-01	1.34204917e-03	1.26406565e+00	1.49141726e+05	3.00000000e+02	1.90140674e+03	4.07740696e+06	2.06793887e+00	1.11306424e-05	-1.02556609e-40	-2.60086949e-47	-7.85407454e-40
4.00809254e-01	1.29320011e-01	1.19560533e-03	1.27946297e+00	1.51474784e+05	3.00000000e+02	1.90920992e+03	4.12993369e+06	2.08476006e+00	1.11306424e-05	-1.16489991e-40	-2.86208168e-47	-8.93189436e-40
4.00806019e-01	1.29320011e-01	1.47408235e-03	1.27928902e+00	1.51468047e+05	3.00000000e+02	1.91078631e+03	4.13134362e+06	2.08547868e+00	1.11306424e-05	-2.49814870e-40	-6.49431161e-47	-1.76270058e-39
4.00289741e-01	1.29320011e-01	1.72511654e-03	1.24882421e+00	1.46848933e+05	3.00000000e+02	1.89500523e+03	4.02587995e+06	2.05197104e+00	1.11306424e-05	-1.30843073e-40	-3.41122254e-47	-9.93486562e-40
4.00703538e-01	1.29320011e-01	1.82775218e-03	1.27299380e+00	1.50524260e+05	3.00000000e+02	1.90831511e+03	4.11105576e+06	2.07899544e+00	1.11306424e-05	-3.62598223e-40	-1.01323827e-46	-2.45296864e-39
4.00696250e-01	1.29320011e-01	2.94776482e-03	1.27269136e+00	1.50461234e+05	3.00000000e+02	1.90680990e+03	4.10826751e+06	2.07792856e+00	1.11306424e-05	-5.49676565e-38	-1.77620574e-44	-2.50694632e-37
4.00646938e-01	1.29320011e-01	2.33058729e-03	1.26942961e+00	1.49974628e+05	3.00000000e+02	1.90530061e+03	4.09791360e+06	2.07444264e+00	1.11306424e-05	-2.20223151e-39	-7.33700335e-46	-1.15699505e-38
4.00116600e-01	1.29320011e-01	2.38604780e-03	1.23946795e+00	1.45442716e+05	3.00000000e+02	1.89030105e+03	3.99375797e+06	2.04173093e+00	1.11306424e-05	-2.08663653e-40	-6.08105073e-47	-1.74569642e-39
4.02062635e-01	1.29320011e-01	1.83557398e-03	1.35978692e+00	1.63949938e+05	3.00000000e+02	1.96487180e+03	4.41394815e+06	2.18030196e+00	1.11306424e-05	-4.42200291e-38	-1.78961619e-44	-1.97242798e-37
4.02158930e-01	1.29320011e-01	2.11346276e-03	1.36577734e+00	1.64869403e+05	3.00000000e+02	1.97029875e+03	4.43273521e+06	2.18812658e+00	1.11306424e-05	-4.58311361e-37	-1.70476085e-43	-1.92741641e-36
4.01768193e-01	1.29320011e-01	1.96695855e-03	1.34108445e+00	1.61026187e+05	3.00000000e+02	1.95175708e+03	4.34897377e+06	2.15802378e+00	1.11306424e-05	-2.79991370e-38	-1.10294970e-44	-1.26491143e-37
4.01858618e-01	1.29320011e-01	2.28561835e-03	1.34710196e+00	1.61939427e+05	3.00000000e+02	1.95379265e+03	4.36741324e+06	2.16398779e+00	1.11306424e-05	-3.49852855e-37	-1.27111333e-43	-1.47794570e-36
4.01974461e-01	1.29320011e-01	2.60500679e-03	1.35435304e+00	1.63085148e+05	3.00000000e+02	1.96096866e+03	4.39377150e+06	2.17378518e+00	1.11306424e-05	-4.45976922e-36	-1.39214095e-42	-1.81997454e-35
4.01654985e-01	1.29320011e-01	2.84941335e-03	1.33398156e+00	1.59891167e+05	3.00000000e+02	1.94453642e+03	4.32142307e+06	2.14831689e+00	1.11306424e-05	-4.19282255e-36	-1.27536931e-42	-1.71342792e-35
4.01300970e-01	1.29320011e-01	3.20991140e-03	1.31092335e+00	1.56317668e+05	3.00000000e+02	1.92902867e+03	4.24098695e+06	2.12115964e+00	1.11306424e-05	-3.60603202e-36	-1.07628307e-42	-1.48035253e-35
4.00864898e-01	1.29320011e-01	3.66567551e-03	1.28347012e+00	1.52104901e+05	3.00000000e+02	1.91303915e+03	4.14572503e+06	2.09011497e+00	1.11306424e-05	-2.42776103e-36	-7.17953981e-43	-1.01012784e-35
4.01193100e-01	1.29320011e-01	4.63185826e-03	1.30433734e+00	1.55284722e+05	3.00000000e+02	1.92507998e+03	4.21627000e+06	2.11365800e+00	1.11306424e-05	-2.08716243e-34	-5.27631296e-41	-8.18713590e-34
4.02224705e-01	1.29320011e-01	1.47375444e-03	1.36964150e+00	1.65527649e+05	3.00000000e+02	1.97476591e+03	4.45097738e+06	2.19370347e+00	1.11306424e-05	-7.57156671e-39	-3.08279452e-45	-3.89852459e-38
4.02430584e-01	1.29320011e-01	1.41277460e-03	1.38227901e+00	1.67425542e+05	3.00000000e+02	1.98241768e+03	4.48592496e+06	2.20805966e+00	1.11306424e-05	-1.08910886e-38	-4.54468762e-45	-5.48822799e-38
4.02308642e-01	1.29320011e-01	1.73212580e-03	1.37519083e+00	1.66289440e+05	3.00000000e+02	1.97523107e+03	4.45963829e+06	2.19838875e+00	1.11306424e-05	-6.22539832e-38	-2.56477311e-44	-2.75713867e-37
4.02511060e-01	1.29320011e-01	1.66044691e-03	1.38625199e+00	1.68112090e+05	3.00000000e+02	1.98857346e+03	4.50522707e+06	2.21466110e+00	1.11306424e-05	-8.42252925e-38	-3.50294618e-44	-3.71302667e-37
4.02703815e-01	1.29320011e-01	1.59218898e-03	1.39683107e+00	1.69749555e+05	3.00000000e+02	1.99765854e+03	4.53830524e+06	2.22816802e+00	1.11306424e-05	-1.09538318e-37	-4.57233384e-44	-4.81695518e-37
4.02012793e-01	1.29320011e-01	1.35832420e-04	1.35918028e+00	1.63841589e+05	3.00000000e+02	1.96492039e+03	4.41056218e+06	2.17984815e+00	1.11306424e-05	2.99912534e-42	2.39846442e-48	-1.87025852e-41
4.02227442e-01	1.29320011e-01	1.30216461e-04	1.37190883e+00	1.65855850e+05	3.00000000e+02	1.97670257e+03	4.45613666e+06	2.19658824e+00	1.11306424e-05	3.80490409e-42	3.52295638e-48	-3.34765359e-41
4.02431851e-01	1.29320011e-01	1.24856096e-04	1.38344815e+00	1.67673560e+05	3.00000000e+02	1.98744055e+03	4.49594805e+06	2.21178996e+00	1.11306424e-05	4.80340164e-42	5.05483517e-48	-5.56630888e-41
4.02626528e-01	1.29320011e-01	1.19763383e-04	1.39378141e+00	1.69303759e+05	3.00000000e+02	1.99756624e+03	4.53127457e+06	2.22568292e+00	1.11306424e-05	6.05454011e-42	7.06637469e-48	-8.74620125e-41
4.02811920e-01	1.29320011e-01	1.14907718e-04	1.40297686e+00	1.70754297e+05	3.00000000e+02	2.00706456e+03	4.56226237e+06	2.23831544e+00	1.11306424e-05	7.62483378e-42	9.60081266e-48	-1.31301940e-40
4.02988458e-01	1.29320011e-01	1.10277213e-04	1.41109121e+00	1.72033300e+05	3.00000000e+02	2.01595059e+03	4.58918217e+06	2.24974270e+00	1.11306424e-05	9.57446071e-42	1.26637366e-47	-1.89912611e-40
4.02027018e-01	1.29320011e-01	4.07122208e-04	1.35912000e+00	1.63771971e+05	3.00000000e+02	1.95968946e+03	4.40457817e+06	2.17690001e+00	1.11306424e-05	-1.77204380e-42	3.25783717e-48	-1.22781322e-40
4.02241078e-01	1.29320011e-01	3.90273734e-04	1.37265022e+00	1.65867039e+05	3.00000000e+02	1.96999195e+03	4.44869077e+06	2.19344896e+00	1.11306424e-05	-4.24867640e-42	4.37630451e-48	-1.88575293e-40
4.02444929e-01	1.29320011e-01	3.74234995e-04	1.38445033e+00	1.67743912e+05	3.00000000e+02	1.98176123e+03	4.49113710e+06	2.20942732e+00	1.11306424e-05	-7.50618648e-42	5.79059171e-48	-2.76762514e-40
4.02639069e-01	1.29320011e-01	3.58952459e-04	1.39492843e+00	1.69406452e+05	3.00000000e+02	1.99277769e+03	4.52785156e+06	2.22392816e+00	1.11306424e-05	-1.16347503e-41	7.43899430e-48	-3.91431020e-40
4.02823954e-01	1.29320011e-01	3.44404666e-04	1.40412623e+00	1.70866896e+05	3.00000000e+02	2.00309663e+03	4.55972915e+06	2.23701755e+00	1.11306424e-05	-1.67825210e-41	9.16605667e-48	-5.36924968e-40
4.03000001e-01	1.29320011e-01	3.30551110e-04	1.41215987e+00	1.72142229e+05	3.00000000e+02	2.01267747e+03	4.58721067e+06	2.24876665e+00	1.11306424e-05	-2.31691990e-41	1.06891284e-47	-7.17781957e-40
4.02055425e-01	1.29320011e-01	6.77304372e-04	1.36103559e+00	1.64057189e+05	3.00000000e+02	1.96147053e+03	4.40979849e+06	2.17941641e+00	1.11306424e-05	-6.04091058e-41	-8.04256187e-48	-7.23535688e-40
4.02268307e-01	1.29320011e-01	6.49273395e-04	1.37381843e+00	1.66107189e+05	3.00000000e+02	1.97386372e+03	4.45807899e+06	2.19653748e+00	1.11306424e-05	-8.33405527e-41	-1.12465849e-47	-9.93439614e-40
4.02471040e-01	1.29320011e-01	6.22584942e-04	1.38569225e+00	1.67958974e+05	3.00000000e+02	1.98399395e+03	4.49721109e+06	2.21166289e+00	1.11306424e-05	-1.11025016e-40	-1.56125197e-47	-1.32562686e-39
4.02664106e-01	1.29320011e-01	5.97160626e-04	1.39612423e+00	1.69602950e+05	3.00000000e+02	1.99423797e+03	4.53263807e+06	2.22569622e+00	1.11306424e-05	-1.44557993e-40	-2.19612793e-47	-1.72945291e-39
4.02847963e-01	1.29320011e-01	5.72960711e-04	1.40526404e+00	1.71047419e+05	3.00000000e+02	2.00408540e+03	4.56363079e+06	2.23847601e+00	1.11306424e-05	-1.85424935e-40	-3.14103151e-47	-2.21551754e-39
4.03023056e-01	1.29320011e-01	5.49909341e-04	1.41322669e+00	1.72306414e+05	3.00000000e+02	2.01332532e+03	4.59035976e+06	2.24997793e+00	1.11306424e-05	-2.35420663e-40	-4.53701637e-47	-2.79500204e-39
4.02097914e-01	1.29320011e-01	9.45618300e-04	1.36274235e+00	1.64405199e+05	3.00000000e+02	1.96667334e+03	4.42338157e+06	2.18368226e+00	1.11306424e-05	-4.11020838e-40	-9.94172585e-47	-3.37237272e-39
4.02309045e-01	1.29320011e-01	9.06489728e-04	1.37593192e+00	1.66411222e+05	3.00000000e+02	1.97526417e+03	4.46267119e+06	2.19900609e+00	1.11306424e-05	-5.13244403e-40	-1.29538832e-46	-4.24240100e-39
4.02510108e-01	1.29320011e-01	8.69225159e-04	1.38734949e+00	1.68228583e+05	3.00000000e+02	1.98635776e+03	4.50366762e+06	2.21430295e+00	1.11306424e-05	-6.41338579e-40	-1.71598539e-46	-5.30138449e-39
4.02701582e-01	1.29320011e-01	8.33740540e-04	1.39765324e+00	1.69853218e+05	3.00000000e+02	1.99644266e+03	4.53865482e+06	2.22814528e+00	1.11306424e-05	-8.02681573e-40	-2.29818237e-46	-6.58569610e-39
4.02883917e-01	1.29320011e-01	7.99943011e-04	1.40671765e+00	1.71283195e+05	3.00000000e+02	2.00600173e+03	4.56908320e+06	2.24070398e+00	1.11306424e-05	-1.00611042e-39	-3.09213798e-46	-8.13874912e-39
4.03057572e-01	1.29320011e-01	7.67760171e-04	1.41460253e+00	1.72528023e+05	3.00000000e+02	2.01503803e+03	4.59532314e+06	2.25203017e+00	1.11306424e-05	-1.26013874e-39	-4.14656915e-46	-1.00009149e-38
4.02154397e-01	1.29320011e-01	1.21134549e-03	1.36634639e+00	1.64897902e+05	3.00000000e+02	1.96751550e+03	4.42892555e+06	2.18702472e+00	1.11306424e-05	-1.50244223e-39	-4.84765978e-46	-1.00443224e-38
4.02363182e-01	1.29320011e-01	1.16122137e-03	1.37835832e+00	1.66852802e+05	3.00000000e+02	1.98043525e+03	4.47667391e+06	2.20382322e+00	1.11306424e-05	-2.02374207e-39	-6.97139490e-46	-1.31914302e-38
4.02562025e-01	1.29320011e-01	1.11348793e-03	1.38978788e+00	1.68625564e+05	3.00000000e+02	1.98979361e+03	4.51316690e+06	2.21816394e+00	1.11306424e-05	-2.71004411e-39	-9.87810927e-46	-1.71911322e-38
4.02751379e-01	1.29320011e-01	1.06802313e-03	1.39986736e+00	1.70208623e+05	3.00000000e+02	1.99932622e+03	4.54669250e+06	2.23151926e+00	1.11306424e-05	-3.59277725e-39	-1.37265042e-45	-2.21870786e-38
4.02931697e-01	1.29320011e-01	1.02473496e-03	1.40873061e+00	1.71605048e+05	3.00000000e+02	2.00858294e+03	4.57618513e+06	2.24374876e+00	1.11306424e-05	-4.69865069e-39	-1.86406244e-45	-2.83029800e-38
4.03103429e-01	1.29320011e-01	9.83505926e-04	1.41644068e+00	1.72821011e+05	3.00000000e+02	2.01739015e+03	4.60165528e+06	2.25480770e+00	1.11306424e-05	-6.04461010e-39	-2.46940052e-45	-3.56182562e-38
4.02626649e-01	1.29320011e-01	1.35468736e-03	1.39299112e+00	1.69133525e+05	3.00000000e+02	1.99319684e+03	4.52432883e+06	2.22261701e+00	1.11306424e-05	-1.51250726e-38	-6.41914291e-45	-7.49699303e-38
4.02813366e-01	1.29320011e-01	1.29939158e-03	1.40268897e+00	1.70659774e+05	3.00000000e+02	2.00276786e+03	4.55673497e+06	2.23568886e+00	1.11306424e-05	-2.02922946e-38	-8.70346615e-45	-9.93559356e-38
4.02991176e-01	1.29320011e-01	1.24671766e-03	1.41124428e+00	1.72005315e+05	3.00000000e+02	2.01175304e+03	4.58487340e+06	2.24752119e+00	1.11306424e-05	-2.63751964e-38	-1.13844568e-44	-1.27997301e-37
4.03160507e-01	1.29320011e-01	1.19655590e-03	1.41868960e+00	1.73177305e+05	3.00000000e+02	2.02027268e+03	4.60918109e+06	2.25820859e+00	1.11306424e-05	-3.32873344e-38	-1.44164937e-44	-1.60552599e-37
4.02887374e-01	1.29320011e-01	1.52718694e-03	1.40608832e+00	1.71201924e+05	3.00000000e+02	2.00680571e+03	4.56865281e+06	2.24065158e+00	1.11306424e-05	-1.37582518e-37	-5.74825135e-44	-6.04494989e-37
4.03062196e-01	1.29320011e-01	1.46528007e-03	1.41422315e+00	1.72480342e+05	3.00000000e+02	2.01554074e+03	4.59519303e+06	2.25200903e+00	1.11306424e-05	-1.67546255e-37	-6.99317293e-44	-7.36423444e-37
4.07160220e-01	1.29320011e-01	1.51994492e-03	1.43117489e+00	1.74504803e+05	3.00000000e+02	2.11099879e+03	4.59127693e+06	2.31849259e+00	1.11306424e-05	-1.59221017e-33	-5.16217633e-40	-7.66677259e-33
4.07239827e-01	1.29320011e-01	1.51994499e-03	1.42955592e+00	1.74232318e+05	3.00000000e+02	2.11067884e+03	4.58443056e+06	2.31700525e+00	1.11306424e-05	-1.66043789e-33	-5.39579015e-40	-8.06172880e-33
4.07322780e-01	1.29320011e-01	1.55977488e-03	1.42781726e+00	1.73940940e+05	3.00000000e+02	2.11029013e+03	4.57717509e+06	2.31538259e+00	1.11306424e-05	-2.11979029e-33	-6.69771559e-40	-1.02666236e-32
4.07319316e-01	1.29320011e-01	1.51577917e-03	1.42791468e+00	1.73956215e+05	3.00000000e+02	2.11028101e+03	4.57748617e+06	2.31545657e+00	1.11306424e-05	-1.70008727e-33	-5.54036660e-40	-8.32943734e-33
4.07410302e-01	1.29320011e-01	1.59726049e-03	1.42595354e+00	1.73629083e+05	3.00000000e+02	2.10985248e+03	4.56942140e+06	2.31363146e+00	1.11306424e-05	-2.67624613e-33	-8.23988568e-40	-1.29401983e-32
4.07404251e-01	1.29320011e-01	1.55121322e-03	1.42610989e+00	1.73653993e+05	3.00000000e+02	2.10981735e+03	4.56995898e+06	2.31373859e+00	1.11306424e-05	-2.13470125e-33	-6.76812218e-40	-1.04408024e-32
4.07398483e-01	1.29320011e-01	1.50745770e-03	1.42625762e+00	1.73677709e+05	3.00000000e+02	2.10982159e+03	4.57048237e+06	2.31386076e+00	1.11306424e-05	-1.70874437e-33	-5.58847990e-40	-8.45537912e-33
4.07316022e-01	1.29320011e-01	1.47397176e-03	1.42800976e+00	1.73970782e+05	3.00000000e+02	2.11025423e+03	4.57775853e+06	2.31551897e+00	1.11306424e-05	-1.36751071e-33	-4.60506019e-40	-6.77947746e-33
4.07312892e-01	1.29320011e-01	1.43424495e-03	1.42809986e+00	1.73984713e+05	3.00000000e+02	2.11022951e+03	4.57802826e+06	2.31557845e+00	1.11306424e-05	-1.10323891e-33	-3.84558688e-40	-5.53556152e-33
4.07392998e-01	1.29320011e-01	1.46587977e-03	1.42640016e+00	1.73700307e+05	3.00000000e+02	2.10981272e+03	4.57096134e+06	2.31397151e+00	1.11306424e-05	-1.37159291e-33	-4.63541183e-40	-6.86867389e-33
4.07493606e-01	1.29320011e-01	1.58406690e-03	1.42416962e+00	1.73331521e+05	3.00000000e+02	2.10931457e+03	4.56206771e+06	2.31188911e+00	1.11306424e-05	-2.65095743e-33	-8.19469114e-40	-1.29538848e-32
4.07576118e-01	1.29320011e-01	1.56652947e-03	1.42240981e+00	1.73032905e+05	3.00000000e+02	2.10860489e+03	4.55433155e+06	2.31007106e+00	1.11306424e-05	-2.57800267e-33	-8.00477555e-40	-1.27422089e-32
4.07485147e-01	1.29320011e-01	1.53839882e-03	1.42438772e+00	1.73365405e+05	3.00000000e+02	2.10929677e+03	4.56274031e+06	2.31205585e+00	1.11306424e-05	-2.11059409e-33	-6.71908235e-40	-1.04336398e-32
4.07477105e-01	1.29320011e-01	1.49500351e-03	1.42458738e+00	1.73397552e+05	3.00000000e+02	2.10931894e+03	4.56345822e+06	2.31223003e+00	1.11306424e-05	-1.68628422e-33	-5.53752809e-40	-8.43489303e-33
4.07565277e-01	1.29320011e-01	1.52136907e-03	1.42266552e+00	1.73075785e+05	3.00000000e+02	2.10870446e+03	4.55541018e+06	2.31033324e+00	1.11306424e-05	-2.04854868e-33	-6.55008816e-40	-1.02450755e-32
4.07554979e-01	1.29320011e-01	1.47845535e-03	1.42290989e+00	1.73116593e+05	3.00000000e+02	2.10877100e+03	4.55642498e+06	2.31056811e+00	1.11306424e-05	-1.63361828e-33	-5.38868220e-40	-8.26801221e-33
4.07644407e-01	1.29320011e-01	1.50016759e-03	1.42094016e+00	1.72786945e+05	3.00000000e+02	2.10807328e+03	4.54816921e+06	2.30858629e+00	1.11306424e-05	-1.95209086e-33	-6.27344198e-40	-9.88543492e-33
4.07631866e-01	1.29320011e-01	1.45785262e-03	1.42123552e+00	1.72836422e+05	3.00000000e+02	2.10816555e+03	4.54941284e+06	2.30887674e+00	1.11306424e-05	-1.55370394e-33	-5.15019045e-40	-7.96388627e-33