VARIABLES ="X" "Y" "Z" "rho" "press" "temp" "tau_wall" "qdot" "yplus" "muLam" "ZMean" "ZVar" "CMean" 
Zone T ="wall" I = 8632 , F = point
5.68622500e-01	1.29320011e-01	4.39453148e-03	2.12881223e+00	2.38034119e+05	3.00000000e+02	2.21258393e+03	5.41369666e+06	1.77187418e+00	1.81853336e-05	5.90932516e-04	5.21649644e-13	6.49045331e-03
5.68622500e-01	1.29320011e-01	4.98046889e-03	2.12479722e+00	2.36793985e+05	3.00000000e+02	2.21390090e+03	5.35299749e+06	1.77017815e+00	1.81909949e-05	3.71074254e-04	3.13026889e-13	4.42851896e-03
5.68622500e-01	1.29320011e-01	2.92968761e-04	2.09427091e+00	2.39853750e+05	3.00000000e+02	2.03848298e+03	5.86910856e+06	1.69575653e+00	1.80901460e-05	2.94265309e-03	2.41178274e-12	2.60294721e-02
5.68622500e-01	1.29320011e-01	8.78906286e-04	2.09477456e+00	2.39681051e+05	3.00000000e+02	2.04097689e+03	5.87774009e+06	1.69772409e+00	1.80824043e-05	2.78482445e-03	2.26426037e-12	2.45971562e-02
5.68622500e-01	1.29320011e-01	1.46484381e-03	2.10187427e+00	2.39936308e+05	3.00000000e+02	2.08911465e+03	5.80575014e+06	1.71788325e+00	1.81103338e-05	2.49285350e-03	2.15359771e-12	2.22866235e-02
5.68622500e-01	1.29320011e-01	2.05078133e-03	2.10987862e+00	2.39841205e+05	3.00000000e+02	2.09438240e+03	5.73725682e+06	1.72276708e+00	1.81161437e-05	2.10169711e-03	1.77093077e-12	1.91509916e-02
5.68622500e-01	1.29320011e-01	2.63671891e-03	2.11840382e+00	2.39822023e+05	3.00000000e+02	2.13677199e+03	5.64574997e+06	1.74118565e+00	1.81415330e-05	1.67352359e-03	1.47443517e-12	1.55294018e-02
5.68622500e-01	1.29320011e-01	3.22265643e-03	2.12439568e+00	2.39414175e+05	3.00000000e+02	2.13652116e+03	5.58291341e+06	1.74327731e+00	1.81443086e-05	1.25210451e-03	1.07345403e-12	1.20215016e-02
5.68622500e-01	1.29320011e-01	3.80859396e-03	2.12793201e+00	2.38905938e+05	3.00000000e+02	2.18316264e+03	5.49689576e+06	1.76125812e+00	1.81691457e-05	8.86058602e-04	7.81289281e-13	8.80550974e-03
5.69999933e-01	1.29320011e-01	4.39453148e-03	2.16630882e+00	2.43094924e+05	3.00000000e+02	2.22502036e+03	5.49803787e+06	1.79243224e+00	1.81852815e-05	6.14254298e-04	5.60666948e-13	6.71697961e-03
5.69999934e-01	1.29320011e-01	4.98046889e-03	2.15902017e+00	2.41394121e+05	3.00000000e+02	2.22320164e+03	5.43306241e+06	1.78833400e+00	1.81888291e-05	3.87051777e-04	3.36961260e-13	4.56210083e-03
5.69999934e-01	1.29320011e-01	5.56640653e-03	2.14882655e+00	2.39482525e+05	3.00000000e+02	2.24485349e+03	5.35375485e+06	1.79109383e+00	1.82058911e-05	2.32026423e-04	1.99775412e-13	3.21478551e-03
5.69999934e-01	1.29320011e-01	6.15234417e-03	2.13586240e+00	2.37276578e+05	3.00000000e+02	2.24769813e+03	5.28455948e+06	1.78638235e+00	1.82102876e-05	1.31862854e-04	1.10682475e-13	1.77956461e-03
5.69999933e-01	1.29320011e-01	6.73828158e-03	2.12088842e+00	2.35007533e+05	3.00000000e+02	2.24348806e+03	5.23054183e+06	1.77847297e+00	1.82099653e-05	7.09040508e-05	5.70602941e-14	8.47721216e-04
5.69999933e-01	1.29320011e-01	7.32421898e-03	2.10572804e+00	2.32881829e+05	3.00000000e+02	2.24404853e+03	5.18864176e+06	1.77233592e+00	1.82098689e-05	3.62246220e-05	2.81087750e-14	3.88850008e-04
5.69999934e-01	1.29320011e-01	7.91015662e-03	2.09178719e+00	2.31044190e+05	3.00000000e+02	2.24950750e+03	5.16000328e+06	1.76860949e+00	1.82098395e-05	1.77880905e-05	1.33989150e-14	1.74438253e-04
5.69999934e-01	1.29320011e-01	8.49609403e-03	2.08118956e+00	2.29767332e+05	3.00000000e+02	2.25960813e+03	5.14989353e+06	1.76808072e+00	1.82098300e-05	8.80489301e-06	6.47595321e-15	7.97590043e-05
5.69999934e-01	1.29320011e-01	9.08203144e-03	2.07310488e+00	2.28682947e+05	3.00000000e+02	2.26189999e+03	5.13023873e+06	1.76553819e+00	1.82098269e-05	5.11889224e-06	3.66763196e-15	4.32390776e-05
5.63143372e-01	1.29320011e-01	2.92968761e-04	1.86081559e+00	2.07800605e+05	3.00000000e+02	2.07925016e+03	5.24155802e+06	1.61268177e+00	1.81088954e-05	2.58156896e-03	1.54350704e-12	2.28621700e-02
5.61781168e-01	1.29320011e-01	2.92968761e-04	1.82703201e+00	2.03378416e+05	3.00000000e+02	2.11683650e+03	5.16769527e+06	1.61206634e+00	1.81121257e-05	2.50041808e-03	1.49835562e-12	2.22043264e-02
5.60422004e-01	1.29320011e-01	2.92968761e-04	1.81424565e+00	2.01781402e+05	3.00000000e+02	2.15548459e+03	5.16011448e+06	1.62121775e+00	1.81098458e-05	2.41976460e-03	1.50061326e-12	2.15262779e-02
5.59065848e-01	1.29320011e-01	2.92968761e-04	1.82766746e+00	2.03550199e+05	3.00000000e+02	2.19257583e+03	5.21274566e+06	1.64152921e+00	1.81055984e-05	2.33845793e-03	1.54102152e-12	2.07376397e-02
5.57712704e-01	1.29320011e-01	2.92968761e-04	1.86861943e+00	2.08878511e+05	3.00000000e+02	2.23260133e+03	5.32551789e+06	1.67533173e+00	1.81009264e-05	2.25587904e-03	1.62365760e-12	1.99746624e-02
5.63143372e-01	1.29320011e-01	8.78906286e-04	1.86128078e+00	2.07907542e+05	3.00000000e+02	2.10464134e+03	5.26409991e+06	1.62258877e+00	1.81101533e-05	2.44172786e-03	1.55454318e-12	2.17672943e-02
5.61781168e-01	1.29320011e-01	8.78906286e-04	1.82887908e+00	2.03602702e+05	3.00000000e+02	2.12441484e+03	5.19704953e+06	1.61624026e+00	1.81068055e-05	2.36196208e-03	1.46347805e-12	2.10070563e-02
5.60422004e-01	1.29320011e-01	8.78906287e-04	1.81763889e+00	2.02065028e+05	3.00000000e+02	2.14671402e+03	5.18512516e+06	1.62024087e+00	1.81007643e-05	2.28309158e-03	1.39167141e-12	2.02296609e-02
5.59065848e-01	1.29320011e-01	8.78906286e-04	1.83336004e+00	2.04039044e+05	3.00000000e+02	2.18855647e+03	5.21121577e+06	1.64245348e+00	1.81069490e-05	2.20501070e-03	1.39619543e-12	1.96494132e-02
5.57712704e-01	1.29320011e-01	8.78906287e-04	1.87502403e+00	2.09702177e+05	3.00000000e+02	2.26220742e+03	5.32398047e+06	1.68778814e+00	1.81170422e-05	2.12727388e-03	1.57835187e-12	1.91427956e-02
5.63143372e-01	1.29320011e-01	1.46484381e-03	1.86655138e+00	2.07893890e+05	3.00000000e+02	2.08801717e+03	5.22918478e+06	1.61853590e+00	1.81092418e-05	2.17986964e-03	1.31856085e-12	1.95495395e-02
5.61781168e-01	1.29320011e-01	1.46484381e-03	1.83632392e+00	2.03987365e+05	3.00000000e+02	2.13641576e+03	5.15694222e+06	1.62310784e+00	1.81178122e-05	2.11042784e-03	1.28668156e-12	1.90761098e-02
5.60422004e-01	1.29320011e-01	1.46484381e-03	1.82735861e+00	2.02963076e+05	3.00000000e+02	2.18876908e+03	5.15245009e+06	1.63833547e+00	1.81236066e-05	2.04154691e-03	1.32115719e-12	1.85248028e-02
5.59065848e-01	1.29320011e-01	1.46484381e-03	1.84292320e+00	2.05081485e+05	3.00000000e+02	2.23793411e+03	5.20620652e+06	1.66352943e+00	1.81251819e-05	1.97060459e-03	1.39669660e-12	1.78797141e-02
5.63143372e-01	1.29320011e-01	2.05078133e-03	1.87344081e+00	2.08300544e+05	3.00000000e+02	2.12983263e+03	5.20487770e+06	1.63640446e+00	1.81233163e-05	1.84359645e-03	1.21680964e-12	1.67661117e-02
5.61781168e-01	1.29320011e-01	2.05078133e-03	1.84629263e+00	2.04714013e+05	3.00000000e+02	2.16379254e+03	5.13181250e+06	1.63670914e+00	1.81310170e-05	1.78386506e-03	1.15695520e-12	1.62323187e-02
5.60422003e-01	1.29320011e-01	2.05078133e-03	1.84123894e+00	2.04169822e+05	3.00000000e+02	2.21448650e+03	5.12898869e+06	1.65275415e+00	1.81392336e-05	1.72344861e-03	1.17882705e-12	1.57539684e-02
5.59065848e-01	1.29320011e-01	2.05078133e-03	1.85843080e+00	2.06579286e+05	3.00000000e+02	2.26939128e+03	5.18862627e+06	1.68035595e+00	1.81452183e-05	1.65916574e-03	1.26006014e-12	1.52415798e-02
5.63143372e-01	1.29320011e-01	2.63671891e-03	1.88502695e+00	2.09113046e+05	3.00000000e+02	2.17880565e+03	5.16977043e+06	1.65846801e+00	1.81424747e-05	1.47026274e-03	1.07110992e-12	1.37762425e-02
5.61781168e-01	1.29320011e-01	2.63671891e-03	1.86058954e+00	2.05981215e+05	3.00000000e+02	2.19938625e+03	5.13316141e+06	1.65581522e+00	1.81384331e-05	1.42074320e-03	1.02093066e-12	1.32536840e-02
5.60422003e-01	1.29320011e-01	2.63671891e-03	1.85870797e+00	2.05744598e+05	3.00000000e+02	2.22087246e+03	5.14717439e+06	1.66360784e+00	1.81322638e-05	1.36829761e-03	9.84560003e-13	1.27311144e-02
5.59065848e-01	1.29320011e-01	2.63671891e-03	1.87831843e+00	2.08261547e+05	3.00000000e+02	2.25659978e+03	5.18799596e+06	1.68538504e+00	1.81362855e-05	1.31127088e-03	9.85878273e-13	1.23036091e-02
5.63143372e-01	1.29320011e-01	3.22265643e-03	1.90044608e+00	2.10300805e+05	3.00000000e+02	2.20467857e+03	5.12520587e+06	1.67323967e+00	1.81625934e-05	1.10599499e-03	8.10753677e-13	1.08475055e-02
5.61781168e-01	1.29320011e-01	3.22265643e-03	1.87981331e+00	2.07780927e+05	3.00000000e+02	2.23873464e+03	5.09941770e+06	1.67672835e+00	1.81648392e-05	1.06846800e-03	8.02901521e-13	1.04707902e-02
5.60422003e-01	1.29320011e-01	3.22265644e-03	1.88160344e+00	2.08118402e+05	3.00000000e+02	2.27067636e+03	5.12065711e+06	1.68939831e+00	1.81654102e-05	1.02625215e-03	8.09222225e-13	1.00281355e-02
5.59065848e-01	1.29320011e-01	3.22265643e-03	1.90237568e+00	2.10844791e+05	3.00000000e+02	2.30113709e+03	5.17558962e+06	1.71001076e+00	1.81658675e-05	9.77953626e-04	8.23055456e-13	9.52843443e-03
5.63143372e-01	1.29320011e-01	3.80859396e-03	1.92084217e+00	2.12088105e+05	3.00000000e+02	2.22712204e+03	5.08716212e+06	1.68909898e+00	1.81801869e-05	7.87414392e-04	5.93353259e-13	7.90638808e-03
5.61781168e-01	1.29320011e-01	3.80859396e-03	1.90385467e+00	2.10077949e+05	3.00000000e+02	2.26009071e+03	5.07259177e+06	1.69382538e+00	1.81822152e-05	7.59803828e-04	5.87249495e-13	7.68116745e-03
5.60422003e-01	1.29320011e-01	3.80859396e-03	1.90777695e+00	2.10743590e+05	3.00000000e+02	2.29294406e+03	5.10117224e+06	1.70767248e+00	1.81840889e-05	7.26649293e-04	5.94484562e-13	7.41930444e-03
5.59065848e-01	1.29320011e-01	3.80859396e-03	1.92868146e+00	2.13543888e+05	3.00000000e+02	2.32283042e+03	5.16108599e+06	1.72804441e+00	1.81852679e-05	6.87001584e-04	6.08990303e-13	7.10648698e-03
5.63143372e-01	1.29320011e-01	4.39453148e-03	1.94588215e+00	2.14601011e+05	3.00000000e+02	2.24374806e+03	5.08930494e+06	1.70600331e+00	1.81844864e-05	5.28175326e-04	4.15136561e-13	5.73924528e-03
5.61781168e-01	1.29320011e-01	4.39453148e-03	1.93270941e+00	2.13047508e+05	3.00000000e+02	2.26682578e+03	5.08150884e+06	1.70900882e+00	1.81837581e-05	5.08283847e-04	4.06542330e-13	5.49687590e-03
5.60422003e-01	1.29320011e-01	4.39453149e-03	1.93788703e+00	2.13774669e+05	3.00000000e+02	2.28658922e+03	5.10402479e+06	1.71886142e+00	1.81824766e-05	4.82872163e-04	3.99167946e-13	5.21944927e-03
5.59065848e-01	1.29320011e-01	4.39453149e-03	1.95699863e+00	2.16220131e+05	3.00000000e+02	2.30373133e+03	5.14710654e+06	1.73390366e+00	1.81811692e-05	4.51834051e-04	3.90784119e-13	4.93176790e-03
5.63143372e-01	1.29320011e-01	4.98046889e-03	1.97555927e+00	2.17751437e+05	3.00000000e+02	2.24973621e+03	5.08583333e+06	1.72015637e+00	1.81961077e-05	3.33380077e-04	2.60198243e-13	4.07231444e-03
5.61781168e-01	1.29320011e-01	4.98046889e-03	1.96535110e+00	2.16593818e+05	3.00000000e+02	2.27205617e+03	5.08189383e+06	1.72403344e+00	1.81978263e-05	3.19980535e-04	2.57154728e-13	3.93985813e-03
5.63143372e-01	1.29320011e-01	5.56640653e-03	2.01008316e+00	2.21520549e+05	3.00000000e+02	2.25724693e+03	5.08374298e+06	1.73673783e+00	1.82094941e-05	1.98318000e-04	1.58489228e-13	2.69420664e-03
5.61781168e-01	1.29320011e-01	5.56640653e-03	2.00252032e+00	2.20619748e+05	3.00000000e+02	2.26944538e+03	5.07660509e+06	1.73806073e+00	1.82103789e-05	1.89452379e-04	1.54637063e-13	2.53948418e-03
5.63143372e-01	1.29320011e-01	6.15234417e-03	2.04690356e+00	2.25530714e+05	3.00000000e+02	2.24434347e+03	5.08996620e+06	1.74749433e+00	1.82101353e-05	1.10118284e-04	8.72827455e-14	1.35850703e-03
5.61781168e-01	1.29320011e-01	6.15234417e-03	2.04140585e+00	2.24823654e+05	3.00000000e+02	2.24616889e+03	5.07996101e+06	1.74585865e+00	1.82101029e-05	1.04474766e-04	8.38781000e-14	1.26212904e-03
5.63143372e-01	1.29320011e-01	6.73828158e-03	2.08286781e+00	2.29568011e+05	3.00000000e+02	2.22658688e+03	5.10449838e+06	1.75581332e+00	1.82099156e-05	5.67536924e-05	4.42182623e-14	6.15742295e-04
5.61781168e-01	1.29320011e-01	6.73828157e-03	2.07940418e+00	2.29027927e+05	3.00000000e+02	2.21777946e+03	5.08839238e+06	1.75088061e+00	1.82099057e-05	5.33420479e-05	4.17761500e-14	5.65813374e-04
5.63143372e-01	1.29320011e-01	7.32421898e-03	2.11533433e+00	2.33260176e+05	3.00000000e+02	2.21127824e+03	5.11955445e+06	1.76335758e+00	1.82098519e-05	2.71319869e-05	2.07745943e-14	2.62834971e-04
5.61781168e-01	1.29320011e-01	7.32421898e-03	2.11382377e+00	2.32878653e+05	3.00000000e+02	2.19260368e+03	5.09773152e+06	1.75526913e+00	1.82098488e-05	2.51890265e-05	1.92652737e-14	2.38453230e-04
5.63143372e-01	1.29320011e-01	7.91015662e-03	2.14192993e+00	2.36345747e+05	3.00000000e+02	2.20248991e+03	5.13665251e+06	1.77088039e+00	1.82098330e-05	1.21012883e-05	9.13478484e-15	1.06632520e-04
5.61781168e-01	1.29320011e-01	7.91015663e-03	2.14224476e+00	2.36122461e+05	3.00000000e+02	2.17551806e+03	5.11066917e+06	1.76013326e+00	1.82098320e-05	1.10590680e-05	8.29857339e-15	9.52254041e-05
5.63143373e-01	1.29320011e-01	8.49609403e-03	2.15979530e+00	2.38449308e+05	3.00000000e+02	2.19927027e+03	5.15064771e+06	1.77695069e+00	1.82098270e-05	5.22660690e-06	3.88734101e-15	4.23232329e-05
5.61781168e-01	1.29320011e-01	8.49609403e-03	2.16166990e+00	2.38357897e+05	3.00000000e+02	2.16600174e+03	5.12080553e+06	1.76422461e+00	1.82098265e-05	4.67617868e-06	3.44235162e-15	3.69863395e-05
5.63143372e-01	1.29320011e-01	9.08203144e-03	2.16966793e+00	2.39975150e+05	3.00000000e+02	2.21436712e+03	5.19443893e+06	1.78710993e+00	1.82098251e-05	2.64007048e-06	2.03002300e-15	1.97416654e-05
5.61781168e-01	1.29320011e-01	9.08203143e-03	2.17334848e+00	2.40048858e+05	3.00000000e+02	2.17545548e+03	5.16124342e+06	1.77284029e+00	1.82098249e-05	2.30317362e-06	1.74928283e-15	1.67966649e-05
5.64508617e-01	1.29320011e-01	2.92968761e-04	1.91044105e+00	2.14489417e+05	3.00000000e+02	2.04410630e+03	5.38150249e+06	1.62106715e+00	1.80989404e-05	2.66474606e-03	1.65195731e-12	2.35210132e-02
5.64508617e-01	1.29320011e-01	8.78906287e-04	1.91207607e+00	2.14653163e+05	3.00000000e+02	2.08459572e+03	5.37729187e+06	1.63661694e+00	1.81114015e-05	2.52310576e-03	1.67829682e-12	2.24341759e-02
5.64508617e-01	1.29320011e-01	1.46484381e-03	1.91565815e+00	2.14526937e+05	3.00000000e+02	2.06727604e+03	5.37171513e+06	1.63230220e+00	1.81006126e-05	2.25315179e-03	1.48964290e-12	2.00362275e-02
5.64508617e-01	1.29320011e-01	2.05078133e-03	1.92244003e+00	2.14869707e+05	3.00000000e+02	2.11542177e+03	5.33099948e+06	1.65228500e+00	1.81207230e-05	1.90496887e-03	1.35715137e-12	1.73612619e-02
5.65876871e-01	1.29320011e-01	2.63671891e-03	1.99519417e+00	2.23452426e+05	3.00000000e+02	2.14640512e+03	5.38499019e+06	1.69317213e+00	1.81460840e-05	1.56837722e-03	1.25571490e-12	1.46797344e-02
5.64508617e-01	1.29320011e-01	2.63671891e-03	1.93262592e+00	2.15281497e+05	3.00000000e+02	2.15996284e+03	5.26071360e+06	1.67177860e+00	1.81448706e-05	1.51896418e-03	1.15142468e-12	1.42571372e-02
5.65876872e-01	1.29320011e-01	3.22265644e-03	2.00549740e+00	2.23708284e+05	3.00000000e+02	2.15033771e+03	5.32211023e+06	1.69822799e+00	1.81553234e-05	1.17565860e-03	9.07775005e-13	1.14636022e-02
5.64508617e-01	1.29320011e-01	3.22265644e-03	1.94506112e+00	2.15942318e+05	3.00000000e+02	2.17339914e+03	5.20483421e+06	1.68101481e+00	1.81593554e-05	1.14098288e-03	8.46084804e-13	1.11715569e-02
5.67248166e-01	1.29320011e-01	3.80859396e-03	2.07612549e+00	2.31991573e+05	3.00000000e+02	2.17715737e+03	5.37914229e+06	1.73694414e+00	1.81727837e-05	8.58254376e-04	7.20345266e-13	8.54522544e-03
5.65876871e-01	1.29320011e-01	3.80859396e-03	2.01660328e+00	2.24221531e+05	3.00000000e+02	2.18153094e+03	5.25662240e+06	1.71331198e+00	1.81756549e-05	8.34134373e-04	6.63052807e-13	8.31931563e-03
5.64508617e-01	1.29320011e-01	3.80859396e-03	1.96083008e+00	2.17092577e+05	3.00000000e+02	2.19912596e+03	5.15269841e+06	1.69602960e+00	1.81780462e-05	8.11372170e-04	6.18734534e-13	8.11252995e-03
5.67248166e-01	1.29320011e-01	4.39453149e-03	2.08129040e+00	2.31775767e+05	3.00000000e+02	2.20574015e+03	5.31723509e+06	1.74928214e+00	1.81852488e-05	5.72602644e-04	4.85436202e-13	6.29519809e-03
5.65876872e-01	1.29320011e-01	4.39453149e-03	2.02825959e+00	2.24933734e+05	3.00000000e+02	2.20858102e+03	5.21870553e+06	1.72797874e+00	1.81850978e-05	5.57724275e-04	4.53772325e-13	6.11960296e-03
5.64508617e-01	1.29320011e-01	4.39453149e-03	1.97965676e+00	2.18786748e+05	3.00000000e+02	2.22243933e+03	5.13746598e+06	1.71251815e+00	1.81848750e-05	5.43859869e-04	4.29931223e-13	5.94216444e-03
5.67248166e-01	1.29320011e-01	4.98046889e-03	2.08401472e+00	2.31432539e+05	3.00000000e+02	2.20988065e+03	5.26717212e+06	1.75136249e+00	1.81925824e-05	3.59405519e-04	2.92543801e-13	4.32437720e-03
5.65876872e-01	1.29320011e-01	4.98046889e-03	2.04059070e+00	2.25844828e+05	3.00000000e+02	2.21463065e+03	5.18515191e+06	1.73476831e+00	1.81937709e-05	3.50744423e-04	2.76494043e-13	4.24238396e-03
5.64508617e-01	1.29320011e-01	4.98046889e-03	2.00196170e+00	2.20982940e+05	3.00000000e+02	2.22887859e+03	5.12107769e+06	1.72368727e+00	1.81948387e-05	3.42929502e-04	2.65850520e-13	4.16593983e-03
5.68622500e-01	1.29320011e-01	5.56640653e-03	2.11829992e+00	2.35383615e+05	3.00000000e+02	2.23719477e+03	5.28230745e+06	1.77518156e+00	1.82070020e-05	2.21457826e-04	1.85699057e-13	3.07048716e-03
5.67248166e-01	1.29320011e-01	5.56640653e-03	2.08575717e+00	2.31102350e+05	3.00000000e+02	2.23425201e+03	5.21304722e+06	1.76025885e+00	1.82077806e-05	2.14060754e-04	1.74840802e-13	2.96140731e-03
5.65876872e-01	1.29320011e-01	5.56640653e-03	2.05428411e+00	2.27045000e+05	3.00000000e+02	2.23711361e+03	5.15276307e+06	1.74799192e+00	1.82083440e-05	2.08866893e-04	1.67149312e-13	2.87777719e-03
5.64508617e-01	1.29320011e-01	5.56640653e-03	2.02789835e+00	2.23713012e+05	3.00000000e+02	2.24535568e+03	5.10823438e+06	1.73987722e+00	1.82088559e-05	2.04262395e-04	1.62087894e-13	2.79821525e-03
5.67248166e-01	1.29320011e-01	6.15234417e-03	2.08676207e+00	2.30711507e+05	3.00000000e+02	2.24018455e+03	5.17064981e+06	1.76278429e+00	1.82102031e-05	1.20182719e-04	9.63394488e-14	1.55909416e-03
5.65876872e-01	1.29320011e-01	6.15234417e-03	2.06866554e+00	2.28334433e+05	3.00000000e+02	2.24065689e+03	5.13162505e+06	1.75531146e+00	1.82101795e-05	1.16843780e-04	9.24367752e-14	1.49074276e-03
5.64508617e-01	1.29320011e-01	6.15234417e-03	2.05566400e+00	2.26649007e+05	3.00000000e+02	2.24230394e+03	5.10560278e+06	1.75043165e+00	1.82101592e-05	1.13900734e-04	8.97694916e-14	1.42997630e-03
5.67248166e-01	1.29320011e-01	6.73828158e-03	2.08674252e+00	2.30373205e+05	3.00000000e+02	2.24180665e+03	5.14298879e+06	1.76343980e+00	1.82099380e-05	6.34700064e-05	4.93784160e-14	7.27440301e-04
5.65876872e-01	1.29320011e-01	6.73828158e-03	2.08220638e+00	2.29686028e+05	3.00000000e+02	2.23994030e+03	5.12384640e+06	1.76078944e+00	1.82099301e-05	6.12083514e-05	4.73981399e-14	6.88986872e-04
5.64508617e-01	1.29320011e-01	6.73828158e-03	2.08254487e+00	2.29625527e+05	3.00000000e+02	2.23468868e+03	5.11390138e+06	1.75886772e+00	1.82099233e-05	5.91918385e-05	4.59041068e-14	6.54623366e-04
5.67248166e-01	1.29320011e-01	7.32421899e-03	2.08628936e+00	2.30112812e+05	3.00000000e+02	2.24667394e+03	5.12481420e+06	1.76516899e+00	1.82098598e-05	3.16133059e-05	2.39693369e-14	3.25025314e-04
5.65876872e-01	1.29320011e-01	7.32421899e-03	2.09425269e+00	2.30962691e+05	3.00000000e+02	2.24157435e+03	5.12204246e+06	1.76652659e+00	1.82098569e-05	3.00688404e-05	2.28383715e-14	3.03171482e-04
5.64508617e-01	1.29320011e-01	7.32421899e-03	2.10666704e+00	2.32355814e+05	3.00000000e+02	2.22917174e+03	5.12466959e+06	1.76684656e+00	1.82098545e-05	2.86761594e-05	2.18888429e-14	2.83572050e-04
5.67248166e-01	1.29320011e-01	7.91015662e-03	2.08541167e+00	2.29913452e+05	3.00000000e+02	2.25519599e+03	5.11598447e+06	1.76814389e+00	1.82098361e-05	1.49907757e-05	1.11260031e-14	1.40697271e-04
5.65876871e-01	1.29320011e-01	7.91015662e-03	2.10381663e+00	2.32038664e+05	3.00000000e+02	2.24701163e+03	5.12599202e+06	1.77270385e+00	1.82098350e-05	1.39643353e-05	1.04352942e-14	1.28370384e-04
5.64508617e-01	1.29320011e-01	7.91015662e-03	2.12619667e+00	2.34626032e+05	3.00000000e+02	2.22851659e+03	5.13821625e+06	1.77475849e+00	1.82098340e-05	1.30393592e-05	9.82058999e-15	1.17402217e-04
5.67248166e-01	1.29320011e-01	8.49609403e-03	2.08408634e+00	2.29785793e+05	3.00000000e+02	2.26659274e+03	5.11875155e+06	1.77204335e+00	1.82098285e-05	7.08195330e-06	5.16490079e-15	6.13187077e-05
5.65876871e-01	1.29320011e-01	8.49609403e-03	2.10969625e+00	2.32773369e+05	3.00000000e+02	2.25541437e+03	5.13565305e+06	1.77849600e+00	1.82098279e-05	6.40055739e-06	4.71496573e-15	5.42078079e-05
5.64508617e-01	1.29320011e-01	8.49609403e-03	2.13898517e+00	2.36163444e+05	3.00000000e+02	2.23169589e+03	5.15176813e+06	1.78135780e+00	1.82098274e-05	5.79285778e-06	4.30550663e-15	4.79840712e-05
5.67248166e-01	1.29320011e-01	9.08203144e-03	2.08088882e+00	2.29532413e+05	3.00000000e+02	2.28091253e+03	5.12940818e+06	1.77626825e+00	1.82098260e-05	3.93841152e-06	2.88408947e-15	3.17043964e-05
5.65876872e-01	1.29320011e-01	9.08203144e-03	2.11100009e+00	2.33175719e+05	3.00000000e+02	2.27313681e+03	5.16248969e+06	1.78602166e+00	1.82098257e-05	3.45116357e-06	2.59078068e-15	2.71138597e-05
5.64508617e-01	1.29320011e-01	9.08203143e-03	2.14497929e+00	2.37206160e+05	3.00000000e+02	2.24977922e+03	5.19052972e+06	1.79106488e+00	1.82098254e-05	3.02070942e-06	2.31186351e-15	2.31556252e-05
5.57712704e-01	1.29320011e-01	1.46484381e-03	1.88440963e+00	2.10630577e+05	3.00000000e+02	2.28564846e+03	5.32941074e+06	1.70018640e+00	1.81230561e-05	1.89546914e-03	1.51916806e-12	1.71568603e-02
5.56362570e-01	1.29320011e-01	1.46484381e-03	1.95323861e+00	2.19882333e+05	3.00000000e+02	2.33909615e+03	5.50887168e+06	1.75066333e+00	1.81273637e-05	1.81525647e-03	1.73304157e-12	1.64060027e-02
5.57712704e-01	1.29320011e-01	2.05078133e-03	1.89965655e+00	2.12177777e+05	3.00000000e+02	2.32246185e+03	5.31311058e+06	1.71842248e+00	1.81475286e-05	1.58858915e-03	1.39866830e-12	1.46797261e-02
5.56362569e-01	1.29320011e-01	2.05078133e-03	1.96510525e+00	2.20986288e+05	3.00000000e+02	2.36721688e+03	5.49553210e+06	1.76474163e+00	1.81453938e-05	1.51053790e-03	1.59119064e-12	1.40164505e-02
5.57712704e-01	1.29320011e-01	2.63671891e-03	1.91866757e+00	2.13796997e+05	3.00000000e+02	2.31627046e+03	5.29951550e+06	1.72472474e+00	1.81472284e-05	1.24807931e-03	1.07958047e-12	1.18776252e-02
5.56362569e-01	1.29320011e-01	2.63671891e-03	1.97986826e+00	2.22089143e+05	3.00000000e+02	2.37451483e+03	5.45583619e+06	1.77287327e+00	1.81578111e-05	1.17689573e-03	1.24218833e-12	1.13095577e-02
5.57712704e-01	1.29320011e-01	3.22265644e-03	1.94115104e+00	2.15893289e+05	3.00000000e+02	2.33539344e+03	5.26444224e+06	1.74000511e+00	1.81674831e-05	9.22726675e-04	8.55441173e-13	8.98249519e-03
5.56362569e-01	1.29320011e-01	3.22265643e-03	1.99626727e+00	2.23155216e+05	3.00000000e+02	2.37216070e+03	5.38670957e+06	1.77773958e+00	1.81739300e-05	8.60212720e-04	9.16446284e-13	8.44185985e-03
5.55015445e-01	1.29320011e-01	3.22265643e-03	2.06439283e+00	2.32125502e+05	3.00000000e+02	2.40422200e+03	5.52975505e+06	1.81934818e+00	1.81803915e-05	7.91961004e-04	1.00378254e-12	7.88495416e-03
5.53671300e-01	1.29320011e-01	3.22265643e-03	2.14019791e+00	2.42223945e+05	3.00000000e+02	2.41913444e+03	5.69418060e+06	1.85774978e+00	1.81846668e-05	7.21418518e-04	1.10395938e-12	7.31430360e-03
5.57712704e-01	1.29320011e-01	3.80859396e-03	1.96452123e+00	2.18202861e+05	3.00000000e+02	2.34808119e+03	5.24348513e+06	1.75339502e+00	1.81861490e-05	6.40710878e-04	6.26237455e-13	6.69367488e-03
5.56362569e-01	1.29320011e-01	3.80859396e-03	2.01201098e+00	2.24320151e+05	3.00000000e+02	2.36748781e+03	5.34219304e+06	1.78177301e+00	1.81862128e-05	5.88622792e-04	6.44693157e-13	6.18816455e-03
5.55015445e-01	1.29320011e-01	3.80859396e-03	2.06746911e+00	2.31473054e+05	3.00000000e+02	2.38050824e+03	5.45366159e+06	1.81124834e+00	1.81849434e-05	5.32781784e-04	6.64918597e-13	5.62231079e-03
5.53671301e-01	1.29320011e-01	3.80859396e-03	2.12698702e+00	2.39290061e+05	3.00000000e+02	2.38461882e+03	5.58245563e+06	1.83900128e+00	1.81821598e-05	4.76659703e-04	6.86531693e-13	5.06226828e-03
5.52330107e-01	1.29320011e-01	3.80859396e-03	2.18515192e+00	2.47178422e+05	3.00000000e+02	2.38027055e+03	5.71736041e+06	1.86184787e+00	1.81863433e-05	4.24579230e-04	7.17726821e-13	4.61401912e-03
5.50991893e-01	1.29320011e-01	3.80859396e-03	2.22917922e+00	2.53213524e+05	3.00000000e+02	2.37034802e+03	5.81820523e+06	1.87595777e+00	1.81924458e-05	3.80517626e-04	7.59398963e-13	4.24599185e-03
5.57712704e-01	1.29320011e-01	4.39453149e-03	1.98778110e+00	2.20195684e+05	3.00000000e+02	2.32386281e+03	5.20787488e+06	1.75461464e+00	1.81862589e-05	4.15763016e-04	3.88797547e-13	4.66239833e-03
5.56362569e-01	1.29320011e-01	4.39453148e-03	2.02605775e+00	2.25094488e+05	3.00000000e+02	2.34315385e+03	5.27674931e+06	1.77823047e+00	1.81917242e-05	3.75926707e-04	3.92133063e-13	4.33507874e-03
5.55015445e-01	1.29320011e-01	4.39453149e-03	2.06783210e+00	2.30508435e+05	3.00000000e+02	2.35802986e+03	5.35676770e+06	1.80163059e+00	1.81970981e-05	3.34519042e-04	3.96159924e-13	3.96187107e-03
5.53671300e-01	1.29320011e-01	4.39453149e-03	2.11180563e+00	2.36347315e+05	3.00000000e+02	2.37132080e+03	5.45279984e+06	1.82533619e+00	1.82018219e-05	2.94560350e-04	4.05299293e-13	3.57291593e-03
5.52330107e-01	1.29320011e-01	4.39453149e-03	2.15491610e+00	2.42225562e+05	3.00000000e+02	2.38166879e+03	5.55933646e+06	1.84750958e+00	1.82055903e-05	2.58936265e-04	4.22904600e-13	3.19577626e-03
5.50991893e-01	1.29320011e-01	4.39453149e-03	2.18969256e+00	2.47143986e+05	3.00000000e+02	2.38441628e+03	5.66013412e+06	1.86314233e+00	1.82084163e-05	2.29593244e-04	4.43867464e-13	2.84593746e-03
5.49656689e-01	1.29320011e-01	4.39453148e-03	2.20826317e+00	2.49828453e+05	3.00000000e+02	2.36994623e+03	5.71862873e+06	1.86513419e+00	1.82104288e-05	2.07488774e-04	4.52178953e-13	2.54007837e-03
5.48324435e-01	1.29320011e-01	4.39453149e-03	2.20164133e+00	2.48803323e+05	3.00000000e+02	2.33276795e+03	5.69323556e+06	1.84764659e+00	1.82106625e-05	1.92300568e-04	4.31045189e-13	2.28755192e-03
5.60422003e-01	1.29320011e-01	4.98046889e-03	1.96997158e+00	2.17258705e+05	3.00000000e+02	2.29087939e+03	5.09875556e+06	1.73298021e+00	1.82000712e-05	3.01782112e-04	2.53131989e-13	3.75419071e-03
5.59065848e-01	1.29320011e-01	4.98046889e-03	1.98589134e+00	2.19266540e+05	3.00000000e+02	2.30452112e+03	5.12618781e+06	1.74488785e+00	1.82027149e-05	2.79121704e-04	2.46147830e-13	3.51225374e-03
5.57712704e-01	1.29320011e-01	4.98046889e-03	2.00956904e+00	2.22191176e+05	3.00000000e+02	2.31407364e+03	5.15989295e+06	1.75862224e+00	1.82055200e-05	2.53036866e-04	2.37590066e-13	3.21804809e-03
5.56362569e-01	1.29320011e-01	4.98046889e-03	2.03652829e+00	2.25550241e+05	3.00000000e+02	2.32276386e+03	5.20076776e+06	1.77343288e+00	1.82082662e-05	2.24981305e-04	2.29938283e-13	2.87271507e-03
5.55015445e-01	1.29320011e-01	4.98046889e-03	2.06430056e+00	2.29105729e+05	3.00000000e+02	2.33356580e+03	5.25214619e+06	1.78939147e+00	1.82107035e-05	1.96906046e-04	2.25263318e-13	2.48786843e-03
5.53671301e-01	1.29320011e-01	4.98046889e-03	2.09302229e+00	2.32971724e+05	3.00000000e+02	2.34744840e+03	5.32654787e+06	1.80716753e+00	1.82105111e-05	1.70830300e-04	2.25347776e-13	2.08517891e-03
5.52330107e-01	1.29320011e-01	4.98046889e-03	2.12271633e+00	2.37187602e+05	3.00000000e+02	2.36259218e+03	5.42309777e+06	1.82582022e+00	1.82103355e-05	1.48264843e-04	2.30874078e-13	1.73850388e-03
5.50991893e-01	1.29320011e-01	4.98046889e-03	2.15111130e+00	2.41340739e+05	3.00000000e+02	2.37253406e+03	5.52470271e+06	1.84186692e+00	1.82102127e-05	1.29997936e-04	2.38978709e-13	1.45807991e-03
5.49656689e-01	1.29320011e-01	4.98046889e-03	2.17383428e+00	2.44636603e+05	3.00000000e+02	2.36631302e+03	5.60117937e+06	1.84914862e+00	1.82101319e-05	1.16162708e-04	2.42630447e-13	1.25018122e-03
5.48324436e-01	1.29320011e-01	4.98046889e-03	2.18073232e+00	2.45496401e+05	3.00000000e+02	2.33687107e+03	5.61074407e+06	1.84052739e+00	1.82100806e-05	1.06293472e-04	2.33576499e-13	1.10491779e-03
5.60422003e-01	1.29320011e-01	5.56640653e-03	2.00442502e+00	2.20841749e+05	3.00000000e+02	2.27854600e+03	5.07944931e+06	1.74234849e+00	1.82106052e-05	1.77030972e-04	1.48798739e-13	2.32024415e-03
5.59065848e-01	1.29320011e-01	5.56640653e-03	2.01385077e+00	2.21959437e+05	3.00000000e+02	2.28307740e+03	5.09037413e+06	1.74818933e+00	1.82104673e-05	1.61493564e-04	1.40635230e-13	2.06228395e-03
5.57712704e-01	1.29320011e-01	5.56640653e-03	2.02791601e+00	2.23626238e+05	3.00000000e+02	2.28424702e+03	5.10544996e+06	1.75474605e+00	1.82103309e-05	1.43913811e-04	1.31421674e-13	1.78297494e-03
5.56362569e-01	1.29320011e-01	5.56640653e-03	2.04265897e+00	2.25423002e+05	3.00000000e+02	2.28622417e+03	5.12621017e+06	1.76188690e+00	1.82102081e-05	1.25668653e-04	1.22937098e-13	1.49909469e-03
5.55015445e-01	1.29320011e-01	5.56640653e-03	2.05685565e+00	2.27297909e+05	3.00000000e+02	2.29424824e+03	5.16111316e+06	1.77110861e+00	1.82101076e-05	1.08196170e-04	1.16934125e-13	1.23235985e-03
5.53671301e-01	1.29320011e-01	5.56640653e-03	2.07257542e+00	2.29582160e+05	3.00000000e+02	2.31061412e+03	5.22043983e+06	1.78420095e+00	1.82100321e-05	9.26383400e-05	1.14581997e-13	1.00262481e-03
5.52330107e-01	1.29320011e-01	5.56640653e-03	2.09230735e+00	2.32575056e+05	3.00000000e+02	2.33235178e+03	5.30580492e+06	1.80109206e+00	1.82099793e-05	7.95972627e-05	1.15795657e-13	8.20923604e-04
5.50991893e-01	1.29320011e-01	5.56640653e-03	2.11682074e+00	2.36266137e+05	3.00000000e+02	2.35105973e+03	5.40613873e+06	1.81886670e+00	1.82099434e-05	6.91803448e-05	1.19035438e-13	6.83465315e-04
5.49656689e-01	1.29320011e-01	5.56640653e-03	2.14275439e+00	2.40022569e+05	3.00000000e+02	2.35421752e+03	5.49438483e+06	1.83120541e+00	1.82099194e-05	6.11612099e-05	1.21089470e-13	5.81879222e-04
5.48324435e-01	1.29320011e-01	5.56640653e-03	2.15966550e+00	2.42286252e+05	3.00000000e+02	2.33414916e+03	5.53217891e+06	1.83056648e+00	1.82099033e-05	5.51683357e-05	1.18000581e-13	5.06999249e-04
5.60422003e-01	1.29320011e-01	6.15234417e-03	2.03889250e+00	2.24455971e+05	3.00000000e+02	2.24686423e+03	5.07133619e+06	1.74505754e+00	1.82100620e-05	9.65807923e-05	7.89114138e-14	1.13652452e-03
5.59065848e-01	1.29320011e-01	6.15234417e-03	2.03946590e+00	2.24429167e+05	3.00000000e+02	2.24543144e+03	5.06303793e+06	1.74475067e+00	1.82100169e-05	8.68047242e-05	7.26244251e-14	9.87455198e-04