VARIABLES ="X" "Y" "Z" "rho" "press" "temp" "tau_wall" "qdot" "yplus" "muLam" "ZMean" "ZVar" "CMean" 
Zone T ="wall" I = 7342 , F = point
4.84159381e-01	1.19520001e-01	8.49609403e-03	1.67177595e+00	1.91256091e+05	3.00000000e+02	1.82611685e+03	4.49828412e+06	1.89068614e+00	1.81770860e-05	8.27024747e-04	2.68099855e-13	8.19283118e-03
4.84159381e-01	1.19520001e-01	7.91015662e-03	1.63752119e+00	1.88725055e+05	3.00000000e+02	1.71402421e+03	4.59774720e+06	1.82054367e+00	1.81005272e-05	2.31079092e-03	1.18596107e-12	2.08886809e-02
4.84159381e-01	1.19520001e-01	7.32421899e-03	1.59021221e+00	1.85695012e+05	3.00000000e+02	1.57081126e+03	4.73289648e+06	1.72413253e+00	1.80305629e-05	4.89830852e-03	2.88691447e-12	4.22775398e-02
4.84159381e-01	1.19520001e-01	6.73828157e-03	1.53047656e+00	1.82353025e+05	3.00000000e+02	1.46557523e+03	4.97353176e+06	1.63891452e+00	1.79742791e-05	8.22633070e-03	4.47846116e-12	6.88982594e-02
4.84159380e-01	1.19520001e-01	6.15234417e-03	1.46457520e+00	1.78918798e+05	3.00000000e+02	1.45490324e+03	5.30554403e+06	1.59941999e+00	1.79515006e-05	1.15917364e-02	5.43775464e-12	9.46469251e-02
4.84159380e-01	1.19520001e-01	5.56640653e-03	1.38905467e+00	1.75606186e+05	3.00000000e+02	1.55603509e+03	5.88813166e+06	1.61172205e+00	1.79419482e-05	1.47780150e-02	7.87684447e-12	1.17824289e-01
4.84159380e-01	1.19520001e-01	4.98046889e-03	1.31834232e+00	1.72388274e+05	3.00000000e+02	1.66004117e+03	6.47616201e+06	1.62197418e+00	1.79398983e-05	1.81817039e-02	1.24642768e-11	1.40832568e-01
4.84159381e-01	1.19520001e-01	9.08203143e-03	1.68918979e+00	1.93283939e+05	3.00000000e+02	1.89410495e+03	4.52828673e+06	1.93256267e+00	1.82053084e-05	2.60242220e-04	4.28831102e-14	3.23024201e-03
4.82972532e-01	1.19520001e-01	9.08203144e-03	1.70034287e+00	1.94642665e+05	3.00000000e+02	1.87176121e+03	4.53625136e+06	1.92727323e+00	1.82070913e-05	2.43750911e-04	3.66113866e-14	3.01917398e-03
4.81788292e-01	1.19520001e-01	9.08203144e-03	1.69771995e+00	1.94378470e+05	3.00000000e+02	1.85635349e+03	4.53984111e+06	1.91766404e+00	1.82087959e-05	2.26797870e-04	3.01247822e-14	2.79170647e-03
4.80606675e-01	1.19520001e-01	9.08203144e-03	1.67958831e+00	1.92282838e+05	3.00000000e+02	1.85080075e+03	4.53814123e+06	1.90437657e+00	1.82103717e-05	2.09665482e-04	2.41418161e-14	2.55028212e-03
4.79427695e-01	1.19520001e-01	9.08203144e-03	1.64525326e+00	1.88243617e+05	3.00000000e+02	1.85771048e+03	4.52878296e+06	1.88829516e+00	1.82106690e-05	1.92844267e-04	1.93552189e-14	2.30051993e-03
4.78251323e-01	1.19520001e-01	9.08203144e-03	1.59757630e+00	1.82642581e+05	3.00000000e+02	1.87734555e+03	4.51551395e+06	1.87055579e+00	1.82105320e-05	1.76974977e-04	1.60863197e-14	2.07177103e-03
4.82972532e-01	1.19520001e-01	8.49609403e-03	1.68107269e+00	1.92448968e+05	3.00000000e+02	1.81251400e+03	4.51071512e+06	1.88857900e+00	1.81798025e-05	7.98194866e-04	2.44069971e-13	7.94402700e-03
4.81788292e-01	1.19520001e-01	8.49609403e-03	1.67851553e+00	1.92250090e+05	3.00000000e+02	1.80861130e+03	4.52050907e+06	1.88473005e+00	1.81834602e-05	7.50604379e-04	2.13143480e-13	7.53166600e-03
4.80606675e-01	1.19520001e-01	8.49609403e-03	1.66228970e+00	1.90434765e+05	3.00000000e+02	1.81557649e+03	4.52926539e+06	1.87894860e+00	1.81859552e-05	6.86923109e-04	1.79265684e-13	6.97921516e-03
4.79427695e-01	1.19520001e-01	8.49609403e-03	1.63245481e+00	1.86968164e+05	3.00000000e+02	1.83282690e+03	4.53131174e+06	1.87073925e+00	1.81868898e-05	6.12938595e-04	1.45072950e-13	6.27678394e-03
4.78251323e-01	1.19520001e-01	8.49609403e-03	1.59205519e+00	1.82372129e+05	3.00000000e+02	1.86166513e+03	4.54330145e+06	1.86207929e+00	1.81853665e-05	5.36947640e-04	1.16757044e-13	5.52317010e-03
4.82972532e-01	1.19520001e-01	7.91015662e-03	1.64629167e+00	1.90055398e+05	3.00000000e+02	1.70290472e+03	4.63905986e+06	1.81967858e+00	1.80985703e-05	2.25500232e-03	1.11302497e-12	2.03859452e-02
4.81788292e-01	1.19520001e-01	7.91015663e-03	1.64399420e+00	1.89979832e+05	3.00000000e+02	1.70400909e+03	4.65169014e+06	1.81777504e+00	1.81107461e-05	2.13739716e-03	1.00341599e-12	1.94665540e-02
4.80606676e-01	1.19520001e-01	7.91015663e-03	1.63706533e+00	1.88482014e+05	3.00000000e+02	1.73584674e+03	4.57958527e+06	1.82955239e+00	1.81231727e-05	1.96084537e-03	9.08777696e-13	1.79718522e-02
4.79427695e-01	1.19520001e-01	7.91015663e-03	1.61349522e+00	1.86147204e+05	3.00000000e+02	1.75914656e+03	4.62442699e+06	1.82735885e+00	1.81343251e-05	1.74285228e-03	7.40440598e-13	1.60489665e-02
4.78251323e-01	1.19520001e-01	7.91015663e-03	1.59190451e+00	1.82947161e+05	3.00000000e+02	1.80830113e+03	4.56018340e+06	1.83918320e+00	1.81450963e-05	1.51188936e-03	6.30283480e-13	1.40974754e-02
4.82972532e-01	1.19520001e-01	7.32421899e-03	1.59540963e+00	1.86602894e+05	3.00000000e+02	1.56584539e+03	4.76520216e+06	1.72390106e+00	1.80338558e-05	4.81391190e-03	2.88297419e-12	4.15919965e-02
4.81788293e-01	1.19520001e-01	7.32421899e-03	1.59973107e+00	1.86914901e+05	3.00000000e+02	1.56708131e+03	4.77226691e+06	1.72751105e+00	1.80276371e-05	4.61015276e-03	2.71097820e-12	3.98496014e-02
4.80606676e-01	1.19520001e-01	7.32421899e-03	1.59710238e+00	1.86266017e+05	3.00000000e+02	1.59965152e+03	4.73601942e+06	1.74233731e+00	1.80441828e-05	4.28587614e-03	2.56124744e-12	3.72142698e-02
4.79427695e-01	1.19520001e-01	7.32421898e-03	1.59281364e+00	1.85495410e+05	3.00000000e+02	1.63849826e+03	4.71964247e+06	1.75948886e+00	1.80596503e-05	3.86974922e-03	2.28261628e-12	3.37633119e-02
4.78251323e-01	1.19520001e-01	7.32421899e-03	1.58373285e+00	1.84416170e+05	3.00000000e+02	1.67777688e+03	4.73340274e+06	1.77370202e+00	1.80766433e-05	3.41579623e-03	1.97335146e-12	2.99535637e-02
4.82972532e-01	1.19520001e-01	6.73828158e-03	1.53765013e+00	1.83394070e+05	3.00000000e+02	1.46238612e+03	4.99787367e+06	1.64075017e+00	1.79766069e-05	8.13995382e-03	4.66857982e-12	6.81980559e-02
4.81788293e-01	1.19520001e-01	6.73828158e-03	1.54334662e+00	1.83968183e+05	3.00000000e+02	1.46779753e+03	5.00137862e+06	1.64673785e+00	1.79775594e-05	7.88939668e-03	4.77084106e-12	6.62118616e-02
4.80606676e-01	1.19520001e-01	6.73828158e-03	1.54783054e+00	1.84282854e+05	3.00000000e+02	1.48233187e+03	4.99742727e+06	1.65672830e+00	1.79834711e-05	7.47909102e-03	4.72915915e-12	6.29165615e-02
4.79427695e-01	1.19520001e-01	6.73828157e-03	1.55637366e+00	1.84850430e+05	3.00000000e+02	1.50101787e+03	4.97708102e+06	1.67104037e+00	1.79909174e-05	6.93143156e-03	4.49014405e-12	5.85058194e-02
4.78251323e-01	1.19520001e-01	6.73828158e-03	1.56540039e+00	1.85480155e+05	3.00000000e+02	1.52325612e+03	4.95543784e+06	1.68690214e+00	1.80052718e-05	6.30285395e-03	4.13290992e-12	5.34073561e-02
4.77077573e-01	1.19520001e-01	6.73828158e-03	1.56591299e+00	1.85368060e+05	3.00000000e+02	1.55025036e+03	4.96521031e+06	1.70088212e+00	1.80177644e-05	5.66397063e-03	3.78358023e-12	4.82163239e-02
4.82972532e-01	1.19520001e-01	6.15234417e-03	1.47171925e+00	1.80185304e+05	3.00000000e+02	1.45716425e+03	5.35909690e+06	1.60446360e+00	1.79525960e-05	1.15288941e-02	5.92721939e-12	9.41311127e-02
4.81788292e-01	1.19520001e-01	6.15234417e-03	1.48061150e+00	1.81395038e+05	3.00000000e+02	1.45970513e+03	5.38806552e+06	1.61052470e+00	1.79546160e-05	1.13040721e-02	6.38745762e-12	9.23974032e-02
4.80606675e-01	1.19520001e-01	6.15234417e-03	1.49380922e+00	1.82736972e+05	3.00000000e+02	1.45816270e+03	5.37891750e+06	1.61653912e+00	1.79578661e-05	1.09195762e-02	6.63197006e-12	8.94583236e-02
4.79427695e-01	1.19520001e-01	6.15234417e-03	1.51307823e+00	1.84587871e+05	3.00000000e+02	1.45152121e+03	5.34981705e+06	1.62298500e+00	1.79604933e-05	1.03901409e-02	6.66878955e-12	8.54253025e-02
4.78251323e-01	1.19520001e-01	6.15234417e-03	1.53410369e+00	1.86504011e+05	3.00000000e+02	1.44014122e+03	5.31100755e+06	1.62741999e+00	1.79647276e-05	9.75100404e-03	6.52046277e-12	8.04974798e-02
4.77077573e-01	1.19520001e-01	6.15234417e-03	1.55027971e+00	1.87549569e+05	3.00000000e+02	1.42792282e+03	5.24290143e+06	1.62826537e+00	1.79730837e-05	9.05517032e-03	6.06770463e-12	7.50358935e-02
4.82972533e-01	1.19520001e-01	5.56640653e-03	1.40159568e+00	1.77260351e+05	3.00000000e+02	1.54457667e+03	5.89971974e+06	1.61297351e+00	1.79423474e-05	1.47409854e-02	8.29002758e-12	1.17533960e-01
4.81788292e-01	1.19520001e-01	5.56640653e-03	1.41808680e+00	1.79182167e+05	3.00000000e+02	1.52966022e+03	5.89085872e+06	1.61444037e+00	1.79439176e-05	1.45519456e-02	8.51950083e-12	1.16148351e-01
4.80606675e-01	1.19520001e-01	5.56640653e-03	1.43946092e+00	1.81562392e+05	3.00000000e+02	1.51204765e+03	5.87096053e+06	1.61711084e+00	1.79445790e-05	1.42165264e-02	8.63378661e-12	1.13720243e-01
4.79427695e-01	1.19520001e-01	5.56640653e-03	1.46601779e+00	1.84539728e+05	3.00000000e+02	1.48837957e+03	5.85358466e+06	1.61898836e+00	1.79462258e-05	1.37519264e-02	8.70756485e-12	1.10327981e-01
4.78251323e-01	1.19520001e-01	5.56640653e-03	1.49398039e+00	1.87504289e+05	3.00000000e+02	1.45502777e+03	5.82071509e+06	1.61566037e+00	1.79493365e-05	1.31890399e-02	8.66436406e-12	1.06181970e-01
4.77077573e-01	1.19520001e-01	5.56640653e-03	1.51842912e+00	1.89678436e+05	3.00000000e+02	1.41677641e+03	5.74996547e+06	1.60707221e+00	1.79515897e-05	1.25640348e-02	8.32429400e-12	1.01559777e-01
4.82972532e-01	1.19520001e-01	4.98046889e-03	1.33323929e+00	1.74660076e+05	3.00000000e+02	1.65797392e+03	6.53152129e+06	1.63016706e+00	1.79391215e-05	1.81256499e-02	1.31294642e-11	1.40542013e-01
4.81788292e-01	1.19520001e-01	4.98046889e-03	1.35384451e+00	1.77444218e+05	3.00000000e+02	1.64847949e+03	6.56287259e+06	1.63803488e+00	1.79388008e-05	1.79137060e-02	1.34704728e-11	1.39201456e-01
4.80606675e-01	1.19520001e-01	4.98046889e-03	1.38092927e+00	1.80836427e+05	3.00000000e+02	1.62760705e+03	6.56808757e+06	1.64381759e+00	1.79389600e-05	1.75660414e-02	1.34770162e-11	1.36917123e-01
4.79427695e-01	1.19520001e-01	4.98046889e-03	1.41440712e+00	1.84775006e+05	3.00000000e+02	1.58991183e+03	6.54042462e+06	1.64417176e+00	1.79397727e-05	1.71088359e-02	1.31276974e-11	1.33830896e-01
4.78251323e-01	1.19520001e-01	4.98046889e-03	1.45046916e+00	1.88649038e+05	3.00000000e+02	1.53586320e+03	6.46430460e+06	1.63636360e+00	1.79407706e-05	1.65703339e-02	1.23830437e-11	1.30116247e-01
4.77077573e-01	1.19520001e-01	4.98046889e-03	1.48243567e+00	1.91825967e+05	3.00000000e+02	1.47852369e+03	6.37527189e+06	1.62292446e+00	1.79429626e-05	1.59782145e-02	1.15055056e-11	1.25943154e-01
4.82972532e-01	1.19520001e-01	4.39453149e-03	1.26593218e+00	1.72384795e+05	3.00000000e+02	1.73372905e+03	7.19660697e+06	1.62457932e+00	1.79368136e-05	2.24988833e-02	2.41552187e-11	1.66835731e-01
4.81788293e-01	1.19520001e-01	4.39453149e-03	1.29142627e+00	1.76018959e+05	3.00000000e+02	1.72881019e+03	7.25883607e+06	1.63858794e+00	1.79361446e-05	2.21892587e-02	2.45691624e-11	1.65287154e-01
4.80606676e-01	1.19520001e-01	4.39453149e-03	1.32355220e+00	1.80341151e+05	3.00000000e+02	1.71279951e+03	7.29774400e+06	1.65116895e+00	1.79358794e-05	2.17235493e-02	2.42915470e-11	1.62757705e-01
4.79427695e-01	1.19520001e-01	4.39453148e-03	1.36118863e+00	1.85194997e+05	3.00000000e+02	1.68218847e+03	7.31071264e+06	1.65942603e+00	1.79361393e-05	2.11376258e-02	2.34007276e-11	1.59381833e-01
4.78251323e-01	1.19520001e-01	4.39453149e-03	1.40067798e+00	1.89987665e+05	3.00000000e+02	1.63580618e+03	7.28267266e+06	1.65985120e+00	1.79372682e-05	2.04708711e-02	2.19236604e-11	1.55342145e-01
4.77077573e-01	1.19520001e-01	4.39453149e-03	1.43832354e+00	1.94125787e+05	3.00000000e+02	1.57626988e+03	7.20024413e+06	1.65099122e+00	1.79386272e-05	1.97630291e-02	1.98452330e-11	1.50859209e-01
4.82972533e-01	1.19520001e-01	3.80859396e-03	1.19070626e+00	1.70588149e+05	3.00000000e+02	1.76314477e+03	7.99419667e+06	1.59071970e+00	1.79160815e-05	2.88790965e-02	5.24250928e-11	1.97044511e-01
4.81788293e-01	1.19520001e-01	3.80859396e-03	1.22043222e+00	1.74981585e+05	3.00000000e+02	1.76190791e+03	8.09298550e+06	1.60980487e+00	1.79170120e-05	2.84107435e-02	5.34852539e-11	1.95508269e-01
4.80606676e-01	1.19520001e-01	3.80859396e-03	1.25709174e+00	1.80097414e+05	3.00000000e+02	1.74906628e+03	8.16406662e+06	1.62767198e+00	1.79188493e-05	2.77468719e-02	5.27575923e-11	1.93079838e-01
4.79427695e-01	1.19520001e-01	3.80859396e-03	1.29912944e+00	1.85709403e+05	3.00000000e+02	1.72202244e+03	8.20123052e+06	1.64161029e+00	1.79211525e-05	2.69278508e-02	5.04240450e-11	1.89776828e-01
4.78251323e-01	1.19520001e-01	3.80859396e-03	1.34343912e+00	1.91292101e+05	3.00000000e+02	1.67976578e+03	8.18940601e+06	1.64848373e+00	1.79241710e-05	2.59981719e-02	4.65295632e-11	1.85638123e-01
4.77077573e-01	1.19520001e-01	3.80859396e-03	1.38668059e+00	1.96311273e+05	3.00000000e+02	1.62482005e+03	8.11744512e+06	1.64685737e+00	1.79277278e-05	2.50044271e-02	4.12729528e-11	1.80770073e-01
4.82972532e-01	1.19520001e-01	3.22265643e-03	1.10177025e+00	1.69244688e+05	3.00000000e+02	1.70725608e+03	8.75524714e+06	1.51351091e+00	1.78237746e-05	3.86438388e-02	1.19405863e-10	2.24687759e-01
4.81788293e-01	1.19520001e-01	3.22265643e-03	1.13428870e+00	1.74247436e+05	3.00000000e+02	1.70885228e+03	8.90683332e+06	1.53577319e+00	1.78310684e-05	3.79637351e-02	1.24243558e-10	2.23589161e-01
4.80606675e-01	1.19520001e-01	3.22265643e-03	1.17370346e+00	1.79977330e+05	3.00000000e+02	1.69928078e+03	9.03438394e+06	1.55707120e+00	1.78399518e-05	3.70308768e-02	1.25079440e-10	2.21987935e-01
4.79427695e-01	1.19520001e-01	3.22265643e-03	1.21869749e+00	1.86189235e+05	3.00000000e+02	1.67659558e+03	9.12754645e+06	1.57504208e+00	1.78509091e-05	3.58861469e-02	1.21586037e-10	2.19777997e-01
4.78251323e-01	1.19520001e-01	3.22265643e-03	1.26688460e+00	1.92455507e+05	3.00000000e+02	1.64009668e+03	9.16788971e+06	1.58722750e+00	1.78630024e-05	3.45726378e-02	1.13741548e-10	2.16887648e-01
4.77077573e-01	1.19520001e-01	3.22265643e-03	1.31510256e+00	1.98236035e+05	3.00000000e+02	1.59127808e+03	9.13919747e+06	1.59178207e+00	1.78755589e-05	3.31450178e-02	1.01649647e-10	2.13256315e-01
4.82972533e-01	1.19520001e-01	2.63671891e-03	9.94969071e-01	1.68326059e+05	3.00000000e+02	1.59717057e+03	9.09626537e+06	1.40849561e+00	1.76041609e-05	5.34229212e-02	2.65743096e-10	2.39047186e-01
4.81788293e-01	1.19520001e-01	2.63671891e-03	1.02780762e+00	1.73796426e+05	3.00000000e+02	1.59687183e+03	9.32085849e+06	1.43032519e+00	1.76175918e-05	5.25451664e-02	2.86623425e-10	2.38769854e-01
4.80606676e-01	1.19520001e-01	2.63671891e-03	1.06732611e+00	1.79984852e+05	3.00000000e+02	1.58533678e+03	9.53520151e+06	1.45081340e+00	1.76355157e-05	5.13513122e-02	3.01566090e-10	2.38361827e-01
4.79427695e-01	1.19520001e-01	2.63671891e-03	1.11241556e+00	1.86649731e+05	3.00000000e+02	1.56006452e+03	9.72672414e+06	1.46754647e+00	1.76564475e-05	4.98697616e-02	3.06385338e-10	2.37798242e-01
4.78251323e-01	1.19520001e-01	2.63671891e-03	1.16179063e+00	1.93474719e+05	3.00000000e+02	1.52093248e+03	9.87113172e+06	1.47881925e+00	1.76804857e-05	4.81209378e-02	2.99812413e-10	2.36966734e-01
4.77077573e-01	1.19520001e-01	2.63671891e-03	1.21265557e+00	1.99871646e+05	3.00000000e+02	1.46910012e+03	9.94666891e+06	1.48257838e+00	1.77079038e-05	4.61513900e-02	2.78776467e-10	2.35776295e-01
4.82972532e-01	1.19520001e-01	2.05078133e-03	8.73664891e-01	1.67639961e+05	3.00000000e+02	1.44220846e+03	8.70437677e+06	1.28250403e+00	1.72154393e-05	7.52977975e-02	4.71583911e-10	2.40417562e-01
4.81788293e-01	1.19520001e-01	2.05078133e-03	9.04416702e-01	1.73439899e+05	3.00000000e+02	1.43911564e+03	8.95513095e+06	1.30206046e+00	1.72342095e-05	7.43515074e-02	5.31760831e-10	2.40494562e-01
4.80606675e-01	1.19520001e-01	2.05078133e-03	9.41160000e-01	1.79922389e+05	3.00000000e+02	1.42485431e+03	9.18842297e+06	1.31964178e+00	1.72604173e-05	7.30333041e-02	5.94404515e-10	2.40608032e-01
4.79427695e-01	1.19520001e-01	2.05078133e-03	9.83354595e-01	1.86870170e+05	3.00000000e+02	1.39585246e+03	9.40327747e+06	1.33292262e+00	1.72886181e-05	7.13537319e-02	6.49151319e-10	2.40838114e-01
4.78251323e-01	1.19520001e-01	2.05078133e-03	1.02990307e+00	1.94068659e+05	3.00000000e+02	1.35041007e+03	9.62980977e+06	1.33925927e+00	1.73203528e-05	6.92982663e-02	6.88120369e-10	2.41156838e-01
4.77077574e-01	1.19520001e-01	2.05078133e-03	1.07850214e+00	2.00903269e+05	3.00000000e+02	1.28901547e+03	9.82266830e+06	1.33597676e+00	1.73592538e-05	6.68592989e-02	6.98668466e-10	2.41448924e-01
4.82972533e-01	1.19520001e-01	1.46484381e-03	7.48731632e-01	1.67150474e+05	3.00000000e+02	1.26184364e+03	7.70401939e+06	1.14802855e+00	1.66534248e-05	1.05082565e-01	5.13885193e-10	2.35195817e-01
4.81788293e-01	1.19520001e-01	1.46484381e-03	7.74327907e-01	1.73065956e+05	3.00000000e+02	1.25516964e+03	7.95656035e+06	1.16378413e+00	1.66621724e-05	1.04511326e-01	5.97854229e-10	2.35251495e-01
4.80606675e-01	1.19520001e-01	1.46484381e-03	8.03687668e-01	1.79639997e+05	3.00000000e+02	1.23689890e+03	8.28182334e+06	1.17602078e+00	1.66757795e-05	1.03581878e-01	6.95421678e-10	2.35354346e-01
4.79427695e-01	1.19520001e-01	1.46484381e-03	8.38368787e-01	1.86740790e+05	3.00000000e+02	1.20674251e+03	8.51283810e+06	1.18439802e+00	1.67038879e-05	1.02237878e-01	8.09060214e-10	2.35554682e-01
4.78251323e-01	1.19520001e-01	1.46484381e-03	8.75394331e-01	1.94316973e+05	3.00000000e+02	1.15702899e+03	8.83700497e+06	1.18230504e+00	1.67430598e-05	1.00442728e-01	9.26732291e-10	2.36085552e-01
4.77077573e-01	1.19520001e-01	1.46484381e-03	9.16227796e-01	2.01370887e+05	3.00000000e+02	1.09429927e+03	8.91762164e+06	1.17314075e+00	1.67884287e-05	9.81524483e-02	1.04840927e-09	2.36881769e-01
4.82972532e-01	1.19520001e-01	8.78906286e-04	6.39965387e-01	1.66869978e+05	3.00000000e+02	1.11853577e+03	6.72200444e+06	1.02981212e+00	1.61597846e-05	1.36207660e-01	2.96918007e-10	2.25327635e-01
4.81788293e-01	1.19520001e-01	8.78906287e-04	6.59106883e-01	1.72880890e+05	3.00000000e+02	1.11650026e+03	6.92877609e+06	1.04426833e+00	1.61579261e-05	1.36512600e-01	3.56085573e-10	2.24856294e-01
4.80606675e-01	1.19520001e-01	8.78906286e-04	6.81453908e-01	1.79659684e+05	3.00000000e+02	1.10774088e+03	7.12366731e+06	1.05738575e+00	1.61619688e-05	1.36630795e-01	4.38314900e-10	2.24384860e-01
4.79427695e-01	1.19520001e-01	8.78906286e-04	7.06668496e-01	1.86874581e+05	3.00000000e+02	1.08897049e+03	7.25823589e+06	1.06693592e+00	1.61721578e-05	1.36500913e-01	5.45180662e-10	2.23947607e-01
4.78251323e-01	1.19520001e-01	8.78906286e-04	7.34910405e-01	1.94502842e+05	3.00000000e+02	1.05319411e+03	7.35138572e+06	1.06900930e+00	1.61875196e-05	1.36077681e-01	6.75311131e-10	2.23592517e-01
4.77077574e-01	1.19520001e-01	8.78906286e-04	7.63943829e-01	2.01831122e+05	3.00000000e+02	1.00022829e+03	7.40218351e+06	1.06086386e+00	1.62073126e-05	1.35316626e-01	8.24015833e-10	2.23350558e-01
4.82972533e-01	1.19520001e-01	2.92968761e-04	5.88286974e-01	1.66733160e+05	3.00000000e+02	1.08891071e+03	5.24743185e+06	9.97275532e-01	1.57857773e-05	1.57980674e-01	1.24133183e-10	2.06546731e-01
4.81788293e-01	1.19520001e-01	2.92968761e-04	6.04601637e-01	1.72741991e+05	3.00000000e+02	1.08878172e+03	5.32731053e+06	1.01263147e+00	1.57595581e-05	1.59277395e-01	1.48949680e-10	2.01515888e-01
4.80606676e-01	1.19520001e-01	2.92968761e-04	6.23139743e-01	1.79545997e+05	3.00000000e+02	1.08101700e+03	5.41100626e+06	1.02625968e+00	1.57304848e-05	1.60648769e-01	1.81068212e-10	1.95295230e-01
4.79427695e-01	1.19520001e-01	2.92968761e-04	6.43076976e-01	1.86889349e+05	3.00000000e+02	1.06359515e+03	5.48300462e+06	1.03622399e+00	1.56984363e-05	1.62099361e-01	2.21075081e-10	1.87706550e-01
4.78251323e-01	1.19520001e-01	2.92968761e-04	6.63933427e-01	1.94609097e+05	3.00000000e+02	1.03331096e+03	5.52976155e+06	1.04009939e+00	1.56636630e-05	1.63633282e-01	2.69165405e-10	1.78613308e-01
4.77077573e-01	1.19520001e-01	2.92968761e-04	6.83730391e-01	2.02046110e+05	3.00000000e+02	9.89055428e+02	5.52294797e+06	1.03507705e+00	1.56268147e-05	1.65261132e-01	3.21887306e-10	1.67916982e-01
4.77077574e-01	1.19520001e-01	9.08203144e-03	1.53968240e+00	1.75748095e+05	3.00000000e+02	1.91056172e+03	4.48758734e+06	1.85253539e+00	1.82104207e-05	1.62608937e-04	1.43770534e-14	1.87194242e-03
4.75906431e-01	1.19520001e-01	9.08203144e-03	1.47916492e+00	1.68581413e+05	3.00000000e+02	1.96161779e+03	4.46011398e+06	1.83987377e+00	1.82103315e-05	1.49915559e-04	1.38525045e-14	1.69925258e-03
4.74737868e-01	1.19520001e-01	9.08203144e-03	1.43545085e+00	1.63426206e+05	3.00000000e+02	2.00866399e+03	4.44133193e+06	1.83409555e+00	1.82102638e-05	1.39478302e-04	1.39649261e-14	1.55785089e-03
4.73571912e-01	1.19520001e-01	9.08203143e-03	1.41014043e+00	1.60484284e+05	3.00000000e+02	2.04544702e+03	4.43516315e+06	1.83442823e+00	1.82102102e-05	1.30543965e-04	1.43401683e-14	1.43894041e-03
4.72408548e-01	1.19520001e-01	9.08203144e-03	1.40376526e+00	1.59857856e+05	3.00000000e+02	2.07238450e+03	4.44750524e+06	1.84229379e+00	1.82101662e-05	1.22629817e-04	1.48682549e-14	1.33617389e-03
4.71247747e-01	1.19520001e-01	9.08203144e-03	1.41321770e+00	1.61221899e+05	3.00000000e+02	2.09293381e+03	4.48162185e+06	1.85763196e+00	1.82101277e-05	1.15170549e-04	1.56745813e-14	1.24181042e-03
4.70089525e-01	1.19520001e-01	9.08203144e-03	1.43637903e+00	1.64415781e+05	3.00000000e+02	2.11518026e+03	4.54537256e+06	1.88272316e+00	1.82100921e-05	1.07759131e-04	1.70179883e-14	1.15035119e-03
4.77077574e-01	1.19520001e-01	8.49609403e-03	1.54714026e+00	1.77455340e+05	3.00000000e+02	1.89232200e+03	4.57585699e+06	1.85092620e+00	1.81829207e-05	4.67979084e-04	9.47687024e-14	4.84701296e-03
4.75906432e-01	1.19520001e-01	8.49609403e-03	1.49561972e+00	1.71296912e+05	3.00000000e+02	1.94244027e+03	4.54653408e+06	1.84308408e+00	1.81898729e-05	4.11999610e-04	8.40206840e-14	4.35490315e-03
4.74737868e-01	1.19520001e-01	8.49609403e-03	1.45320242e+00	1.66219755e+05	3.00000000e+02	1.98945128e+03	4.52007402e+06	1.83806561e+00	1.81952944e-05	3.74131272e-04	7.94296434e-14	3.99747767e-03
4.73571911e-01	1.19520001e-01	8.49609403e-03	1.42403670e+00	1.62725138e+05	3.00000000e+02	2.02770411e+03	4.50097573e+06	1.83660445e+00	1.81985855e-05	3.49661176e-04	7.95644986e-14	3.75459117e-03
4.72408548e-01	1.19520001e-01	8.49609403e-03	1.41183465e+00	1.61346197e+05	3.00000000e+02	2.05969580e+03	4.50238216e+06	1.84289357e+00	1.82005114e-05	3.35163230e-04	8.34612999e-14	3.59905720e-03
4.71247748e-01	1.19520001e-01	8.49609403e-03	1.41943290e+00	1.62478665e+05	3.00000000e+02	2.08379655e+03	4.53277869e+06	1.85850665e+00	1.82016750e-05	3.26710776e-04	9.07872240e-14	3.49851306e-03
4.70089525e-01	1.19520001e-01	8.49609403e-03	1.44410418e+00	1.65832434e+05	3.00000000e+02	2.10236771e+03	4.59300140e+06	1.88283784e+00	1.82025012e-05	3.20967978e-04	1.02366603e-13	3.42370892e-03
4.77077573e-01	1.19520001e-01	7.91015662e-03	1.56064835e+00	1.80329806e+05	3.00000000e+02	1.81460802e+03	4.69037912e+06	1.82477084e+00	1.81395285e-05	1.29819199e-03	4.81519980e-13	1.21793463e-02
4.75906431e-01	1.19520001e-01	7.91015662e-03	1.52194215e+00	1.74702143e+05	3.00000000e+02	1.86435858e+03	4.54952623e+06	1.82398232e+00	1.81649227e-05	1.12703158e-03	4.18759550e-13	1.07371636e-02
4.74737867e-01	1.19520001e-01	7.91015662e-03	1.48090112e+00	1.69887217e+05	3.00000000e+02	1.91233986e+03	4.54605963e+06	1.82195113e+00	1.81676699e-05	1.00781170e-03	3.81597971e-13	9.61574808e-03
4.73571911e-01	1.19520001e-01	7.91015662e-03	1.44697328e+00	1.66014761e+05	3.00000000e+02	1.95392094e+03	4.55217698e+06	1.82027075e+00	1.81692979e-05	9.35596584e-04	3.76917620e-13	8.92075694e-03
4.72408548e-01	1.19520001e-01	7.91015663e-03	1.42588185e+00	1.63657698e+05	3.00000000e+02	1.99340745e+03	4.55972199e+06	1.82492619e+00	1.81712537e-05	9.02026002e-04	4.01422447e-13	8.60436076e-03
4.71247748e-01	1.19520001e-01	7.91015663e-03	1.42810801e+00	1.64132238e+05	3.00000000e+02	2.02272029e+03	4.58499862e+06	1.83968898e+00	1.81716524e-05	8.98363876e-04	4.52772841e-13	8.57796425e-03
4.70089525e-01	1.19520001e-01	7.91015662e-03	1.45276696e+00	1.67574586e+05	3.00000000e+02	2.03616184e+03	4.65503223e+06	1.86182632e+00	1.81700174e-05	9.13065569e-04	5.38314831e-13	8.71594522e-03
4.77077573e-01	1.19520001e-01	7.32421899e-03	1.57359512e+00	1.82975482e+05	3.00000000e+02	1.70758404e+03	4.72444746e+06	1.78234356e+00	1.80899143e-05	2.98165766e-03	1.68663887e-12	2.63188731e-02
4.75906431e-01	1.19520001e-01	7.32421899e-03	1.54052022e+00	1.78854569e+05	3.00000000e+02	1.73565332e+03	4.70711399e+06	1.77658324e+00	1.81038114e-05	2.62064260e-03	1.40232889e-12	2.32273007e-02
4.74737867e-01	1.19520001e-01	7.32421898e-03	1.51586221e+00	1.75057028e+05	3.00000000e+02	1.78474927e+03	4.62753550e+06	1.78693635e+00	1.81050518e-05	2.34386488e-03	1.29407020e-12	2.09081240e-02
4.73571911e-01	1.19520001e-01	7.32421898e-03	1.47749309e+00	1.71221245e+05	3.00000000e+02	1.81193810e+03	4.70299054e+06	1.77699034e+00	1.81108871e-05	2.17496620e-03	1.23823861e-12	1.94749161e-02
4.72408548e-01	1.19520001e-01	7.32421898e-03	1.45137376e+00	1.67325636e+05	3.00000000e+02	1.85392785e+03	4.59482882e+06	1.78053141e+00	1.81207761e-05	2.10658227e-03	1.32156611e-12	1.89120531e-02
4.71247748e-01	1.19520001e-01	7.32421898e-03	1.44236923e+00	1.66661108e+05	3.00000000e+02	1.89653627e+03	4.63793993e+06	1.79534228e+00	1.81201558e-05	2.12023700e-03	1.54359041e-12	1.89739706e-02
4.70089525e-01	1.19520001e-01	7.32421899e-03	1.46507887e+00	1.70005997e+05	3.00000000e+02	1.90110251e+03	4.73094682e+06	1.81285510e+00	1.81075862e-05	2.20336161e-03	1.88883310e-12	1.96226857e-02
4.75906431e-01	1.19520001e-01	6.73828158e-03	1.55029388e+00	1.83463313e+05	3.00000000e+02	1.58796865e+03	4.99443191e+06	1.71217689e+00	1.80247701e-05	5.08346272e-03	3.40094489e-12	4.34475487e-02
4.74737867e-01	1.19520001e-01	6.73828157e-03	1.53313035e+00	1.80864952e+05	3.00000000e+02	1.62186032e+03	4.96031857e+06	1.72002247e+00	1.80323583e-05	4.60799011e-03	3.10455635e-12	3.95432882e-02
4.73571911e-01	1.19520001e-01	6.73828157e-03	1.50432878e+00	1.76712783e+05	3.00000000e+02	1.65565328e+03	4.87097827e+06	1.71978922e+00	1.80497521e-05	4.30476976e-03	3.04772311e-12	3.70745344e-02
4.72408548e-01	1.19520001e-01	6.73828158e-03	1.47013675e+00	1.72642815e+05	3.00000000e+02	1.69431371e+03	4.87272731e+06	1.71976831e+00	1.80507903e-05	4.18370725e-03	3.20375934e-12	3.60221646e-02
4.71247748e-01	1.19520001e-01	6.73828158e-03	1.45223567e+00	1.70543767e+05	3.00000000e+02	1.72582821e+03	4.86707716e+06	1.72500044e+00	1.80517166e-05	4.23179349e-03	3.64642677e-12	3.63648624e-02
4.70089525e-01	1.19520001e-01	6.73828158e-03	1.46397676e+00	1.72130788e+05	3.00000000e+02	1.73474540e+03	4.87517030e+06	1.73642592e+00	1.80517407e-05	4.44705817e-03	4.56262761e-12	3.80280527e-02
4.68933896e-01	1.19520001e-01	6.73828158e-03	1.48300447e+00	1.75525400e+05	3.00000000e+02	1.69764749e+03	4.98963382e+06	1.72964000e+00	1.80438684e-05	4.83060579e-03	5.69184526e-12	4.11301609e-02
4.75906431e-01	1.19520001e-01	6.15234417e-03	1.55607990e+00	1.87310499e+05	3.00000000e+02	1.42484976e+03	5.17283660e+06	1.62892837e+00	1.79799666e-05	8.36338836e-03	5.50181231e-12	6.95671276e-02
4.74737868e-01	1.19520001e-01	6.15234417e-03	1.55030066e+00	1.85925255e+05	3.00000000e+02	1.43270203e+03	5.12482211e+06	1.62946164e+00	1.79900408e-05	7.75366798e-03	5.10581978e-12	6.46491116e-02
4.73571911e-01	1.19520001e-01	6.15234417e-03	1.52553270e+00	1.82586221e+05	3.00000000e+02	1.45785871e+03	5.10283054e+06	1.63003755e+00	1.79953896e-05	7.32792745e-03	4.99864585e-12	6.12113414e-02
4.72408548e-01	1.19520001e-01	6.15234417e-03	1.49096086e+00	1.78283144e+05	3.00000000e+02	1.49807233e+03	5.08933518e+06	1.63305555e+00	1.80006812e-05	7.14139624e-03	5.24584363e-12	5.96440129e-02
4.71247748e-01	1.19520001e-01	6.15234417e-03	1.46320648e+00	1.74960224e+05	3.00000000e+02	1.52954451e+03	5.08027980e+06	1.63461276e+00	1.80015279e-05	7.23418062e-03	5.78433114e-12	6.03101778e-02
4.70089525e-01	1.19520001e-01	6.15234417e-03	1.45574966e+00	1.74635039e+05	3.00000000e+02	1.53290004e+03	5.12790821e+06	1.63277374e+00	1.79955300e-05	7.61252334e-03	6.71145323e-12	6.32867310e-02
4.68933896e-01	1.19520001e-01	6.15234417e-03	1.46378692e+00	1.76627562e+05	3.00000000e+02	1.50546754e+03	5.21558891e+06	1.62316988e+00	1.79887521e-05	8.26889532e-03	8.04989076e-12	6.83850746e-02
4.75906431e-01	1.19520001e-01	5.56640653e-03	1.53544545e+00	1.90840396e+05	3.00000000e+02	1.38316388e+03	5.67304383e+06	1.59643321e+00	1.79553406e-05	1.19195665e-02	7.87014961e-12	9.67312690e-02
4.74737868e-01	1.19520001e-01	5.56640653e-03	1.54179399e+00	1.90608415e+05	3.00000000e+02	1.35314759e+03	5.58519535e+06	1.58192394e+00	1.79593471e-05	1.13283430e-02	7.32061331e-12	9.22477827e-02
4.73571911e-01	1.19520001e-01	5.56640653e-03	1.53057899e+00	1.88247080e+05	3.00000000e+02	1.33573929e+03	5.49236256e+06	1.56565402e+00	1.79631836e-05	1.08820900e-02	6.76497774e-12	8.87970689e-02
4.72408548e-01	1.19520001e-01	5.56640653e-03	1.50278097e+00	1.84203284e+05	3.00000000e+02	1.34227451e+03	5.42503987e+06	1.55498655e+00	1.79652085e-05	1.06736261e-02	6.51744653e-12	8.71201169e-02
4.71247747e-01	1.19520001e-01	5.56640653e-03	1.46579908e+00	1.79921020e+05	3.00000000e+02	1.37557377e+03	5.44540565e+06	1.55459836e+00	1.79659979e-05	1.07929011e-02	6.90050563e-12	8.79161182e-02
4.70089525e-01	1.19520001e-01	5.56640653e-03	1.44021056e+00	1.77558837e+05	3.00000000e+02	1.39884853e+03	5.51266008e+06	1.55406100e+00	1.79647286e-05	1.12817680e-02	7.68888864e-12	9.15158165e-02
4.75906431e-01	1.19520001e-01	4.98046889e-03	1.50749286e+00	1.94073073e+05	3.00000000e+02	1.42217720e+03	6.28721548e+06	1.60489328e+00	1.79452170e-05	1.53758138e-02	1.06719648e-11	1.21648985e-01
4.74737868e-01	1.19520001e-01	4.98046889e-03	1.52265690e+00	1.94930378e+05	3.00000000e+02	1.36667901e+03	6.18334202e+06	1.58103494e+00	1.79466423e-05	1.48267141e-02	9.76959934e-12	1.17711617e-01
4.73571911e-01	1.19520001e-01	4.98046889e-03	1.52065920e+00	1.93699233e+05	3.00000000e+02	1.32404672e+03	6.08678385e+06	1.55498416e+00	1.79486595e-05	1.44053611e-02	8.92321963e-12	1.14642250e-01
4.72408548e-01	1.19520001e-01	4.98046889e-03	1.49920754e+00	1.90324069e+05	3.00000000e+02	1.30439789e+03	6.01527527e+06	1.53235904e+00	1.79500546e-05	1.42062200e-02	8.36517765e-12	1.13136302e-01
4.71247748e-01	1.19520001e-01	4.98046889e-03	1.46203247e+00	1.85438216e+05	3.00000000e+02	1.31266273e+03	5.98171927e+06	1.51794749e+00	1.79510031e-05	1.43291440e-02	8.25728930e-12	1.13902951e-01