VARIABLES ="X" "Y" "Z" "rho" "press" "temp" "tau_wall" "qdot" "yplus" "muLam" "ZMean" "ZVar" "CMean" 
Zone T ="wall" I = 8632 , F = point
5.68622500e-01	1.29320011e-01	4.39453148e-03	2.18610474e+00	2.50612952e+05	3.00000000e+02	2.22833961e+03	5.99428500e+06	1.80642148e+00	1.81402255e-05	1.45014046e-03	1.35002136e-12	1.38356088e-02
5.68622500e-01	1.29320011e-01	4.98046889e-03	2.19492466e+00	2.50645427e+05	3.00000000e+02	2.26576886e+03	5.91076005e+06	1.82295271e+00	1.81625911e-05	1.03880163e-03	9.62385152e-13	1.05165726e-02
5.86769879e-01	1.29320011e-01	2.92968761e-04	2.01054896e+00	2.34126309e+05	3.00000000e+02	1.83980798e+03	6.11259801e+06	1.58620825e+00	1.80019258e-05	6.13535552e-03	2.04536007e-12	5.22340086e-02
5.85355252e-01	1.29320011e-01	2.92968761e-04	1.98203775e+00	2.30326685e+05	3.00000000e+02	1.87332329e+03	6.06488911e+06	1.58922965e+00	1.80016065e-05	6.04482778e-03	1.99701294e-12	5.14826385e-02
5.83943754e-01	1.29320011e-01	2.92968761e-04	1.97678131e+00	2.29565153e+05	3.00000000e+02	1.90586528e+03	6.05077567e+06	1.60048773e+00	1.80056440e-05	5.95429827e-03	2.03731283e-12	5.06640963e-02
5.82535386e-01	1.29320011e-01	2.92968761e-04	1.99060738e+00	2.31436872e+05	3.00000000e+02	1.93632353e+03	6.08166264e+06	1.61824934e+00	1.80124141e-05	5.86246797e-03	2.15195132e-12	4.98837365e-02
5.81130147e-01	1.29320011e-01	2.92968761e-04	2.02137618e+00	2.35774711e+05	3.00000000e+02	1.96280743e+03	6.17267838e+06	1.64164317e+00	1.80143771e-05	5.76851657e-03	2.35887684e-12	4.92103755e-02
5.79728007e-01	1.29320011e-01	2.92968761e-04	2.06661398e+00	2.42070304e+05	3.00000000e+02	1.97734996e+03	6.29437627e+06	1.66599617e+00	1.80149496e-05	5.67131339e-03	2.63744843e-12	4.84434592e-02
5.78328996e-01	1.29320011e-01	2.92968761e-04	2.11933762e+00	2.49279885e+05	3.00000000e+02	1.97412038e+03	6.42155705e+06	1.68577471e+00	1.80145307e-05	5.57006812e-03	2.92434747e-12	4.75375515e-02
5.76933116e-01	1.29320011e-01	2.92968761e-04	2.17042914e+00	2.56273080e+05	3.00000000e+02	1.95576243e+03	6.53803995e+06	1.69792305e+00	1.80155883e-05	5.46510469e-03	3.15469940e-12	4.66157081e-02
5.75540334e-01	1.29320011e-01	2.92968761e-04	2.21332415e+00	2.62003262e+05	3.00000000e+02	1.93427621e+03	6.60115728e+06	1.70445524e+00	1.80231938e-05	5.35794667e-03	3.40263420e-12	4.57957424e-02
5.74150622e-01	1.29320011e-01	2.92968761e-04	2.23352007e+00	2.64583408e+05	3.00000000e+02	1.90960879e+03	6.63194021e+06	1.70128550e+00	1.80229355e-05	5.24888208e-03	3.56648608e-12	4.49191955e-02
5.72763980e-01	1.29320011e-01	2.92968761e-04	2.22605932e+00	2.63388703e+05	3.00000000e+02	1.88538754e+03	6.61178271e+06	1.68775969e+00	1.80216134e-05	5.13865998e-03	3.52000766e-12	4.39919708e-02
5.71380437e-01	1.29320011e-01	2.92968761e-04	2.19912889e+00	2.59233625e+05	3.00000000e+02	1.87976441e+03	6.51319548e+06	1.67445876e+00	1.80276116e-05	5.02955160e-03	3.39363780e-12	4.29622179e-02
5.69999934e-01	1.29320011e-01	2.92968761e-04	2.16136825e+00	2.53803646e+05	3.00000000e+02	1.89190519e+03	6.40471351e+06	1.66450674e+00	1.80369917e-05	4.92219957e-03	3.27356439e-12	4.20666606e-02
5.68622500e-01	1.29320011e-01	2.92968761e-04	2.12300769e+00	2.48584543e+05	3.00000000e+02	1.91098971e+03	6.33092707e+06	1.65779636e+00	1.80388718e-05	4.81660714e-03	3.22745565e-12	4.13121959e-02
5.86769879e-01	1.29320011e-01	8.78906286e-04	2.01307878e+00	2.34227347e+05	3.00000000e+02	1.85982410e+03	6.10603249e+06	1.59525183e+00	1.80082979e-05	5.90096729e-03	1.99994370e-12	5.02325205e-02
5.85355252e-01	1.29320011e-01	8.78906286e-04	1.98548997e+00	2.30474976e+05	3.00000000e+02	1.90066475e+03	6.04225677e+06	1.60114343e+00	1.80132455e-05	5.81430947e-03	1.97810910e-12	4.95739298e-02
5.83943754e-01	1.29320011e-01	8.78906286e-04	1.97924781e+00	2.29788958e+05	3.00000000e+02	1.93800251e+03	6.05114166e+06	1.61419685e+00	1.80138422e-05	5.72708926e-03	2.05376782e-12	4.89440474e-02
5.82535386e-01	1.29320011e-01	8.78906287e-04	1.99226850e+00	2.31685194e+05	3.00000000e+02	1.96757531e+03	6.10401231e+06	1.63176345e+00	1.80143257e-05	5.63751024e-03	2.19394072e-12	4.81914404e-02
5.81130147e-01	1.29320011e-01	8.78906286e-04	2.02286532e+00	2.35869349e+05	3.00000000e+02	1.98473695e+03	6.19121839e+06	1.65148476e+00	1.80134122e-05	5.54419628e-03	2.35351196e-12	4.73404397e-02
5.79728007e-01	1.29320011e-01	8.78906286e-04	2.06805224e+00	2.42033213e+05	3.00000000e+02	1.99240539e+03	6.29835779e+06	1.67282621e+00	1.80158343e-05	5.44740462e-03	2.54000251e-12	4.65160255e-02
5.78328997e-01	1.29320011e-01	8.78906287e-04	2.12088008e+00	2.49271175e+05	3.00000000e+02	1.99821336e+03	6.40834925e+06	1.69590169e+00	1.80224534e-05	5.34799557e-03	2.83899882e-12	4.57764044e-02
5.76933116e-01	1.29320011e-01	8.78906287e-04	2.17149193e+00	2.56220747e+05	3.00000000e+02	1.98885298e+03	6.52631354e+06	1.71204514e+00	1.80219108e-05	5.24531168e-03	3.15297356e-12	4.49528689e-02
5.75540334e-01	1.29320011e-01	8.78906286e-04	2.21168081e+00	2.61799256e+05	3.00000000e+02	1.96100975e+03	6.62673203e+06	1.71584922e+00	1.80201157e-05	5.13934697e-03	3.35669207e-12	4.40658842e-02
5.74150622e-01	1.29320011e-01	8.78906286e-04	2.23241988e+00	2.64291285e+05	3.00000000e+02	1.93293736e+03	6.63394350e+06	1.71097144e+00	1.80255974e-05	5.03189916e-03	3.44264882e-12	4.30621431e-02
5.72763980e-01	1.29320011e-01	8.78906287e-04	2.22724517e+00	2.63149466e+05	3.00000000e+02	1.91631633e+03	6.57458672e+06	1.70068409e+00	1.80355570e-05	4.92503992e-03	3.41049426e-12	4.21531825e-02
5.71380436e-01	1.29320011e-01	8.78906286e-04	2.19964474e+00	2.59257027e+05	3.00000000e+02	1.91877991e+03	6.51142131e+06	1.69101694e+00	1.80375061e-05	4.82078677e-03	3.38590304e-12	4.14234241e-02
5.69999934e-01	1.29320011e-01	8.78906286e-04	2.16153842e+00	2.53948705e+05	3.00000000e+02	1.92700200e+03	6.43578558e+06	1.67993663e+00	1.80370396e-05	4.71799297e-03	3.32320484e-12	4.05323593e-02
5.68622500e-01	1.29320011e-01	8.78906286e-04	2.12351039e+00	2.48579893e+05	3.00000000e+02	1.92992435e+03	6.35960360e+06	1.66670602e+00	1.80332470e-05	4.61526675e-03	3.15146437e-12	3.95592922e-02
5.86769879e-01	1.29320011e-01	1.46484381e-03	2.01876427e+00	2.34383179e+05	3.00000000e+02	1.88988190e+03	6.08880597e+06	1.60998433e+00	1.80125038e-05	5.45925776e-03	1.94700192e-12	4.67092674e-02
5.85355252e-01	1.29320011e-01	1.46484381e-03	1.99177173e+00	2.30699795e+05	3.00000000e+02	1.93056021e+03	6.01775047e+06	1.61571188e+00	1.80191016e-05	5.37949173e-03	1.92414352e-12	4.61125778e-02
5.83943754e-01	1.29320011e-01	1.46484381e-03	1.98630848e+00	2.30083472e+05	3.00000000e+02	1.96943186e+03	6.02208508e+06	1.62941909e+00	1.80217360e-05	5.29770880e-03	2.00637774e-12	4.54717362e-02
5.82535386e-01	1.29320011e-01	1.46484381e-03	1.99882233e+00	2.31904377e+05	3.00000000e+02	1.99702803e+03	6.07990271e+06	1.64621730e+00	1.80188724e-05	5.21205217e-03	2.12610255e-12	4.47625444e-02
5.81130147e-01	1.29320011e-01	1.46484381e-03	2.02842603e+00	2.36081936e+05	3.00000000e+02	2.01542181e+03	6.17368427e+06	1.66602049e+00	1.80184663e-05	5.12160044e-03	2.27621447e-12	4.40062089e-02
5.79728007e-01	1.29320011e-01	1.46484381e-03	2.07326459e+00	2.42120596e+05	3.00000000e+02	2.02742055e+03	6.26926023e+06	1.68890598e+00	1.80230966e-05	5.02703384e-03	2.47655585e-12	4.31357818e-02
5.78328997e-01	1.29320011e-01	1.46484381e-03	2.12511797e+00	2.49150271e+05	3.00000000e+02	2.03122038e+03	6.37077167e+06	1.71062080e+00	1.80323318e-05	4.92871513e-03	2.71964911e-12	4.23252793e-02
5.76933116e-01	1.29320011e-01	1.46484381e-03	2.17498228e+00	2.56065365e+05	3.00000000e+02	2.02639119e+03	6.48609383e+06	1.72824409e+00	1.80351610e-05	4.82724431e-03	3.01911092e-12	4.16067317e-02
5.75540334e-01	1.29320011e-01	1.46484381e-03	2.21514826e+00	2.61547499e+05	3.00000000e+02	2.00546116e+03	6.57453206e+06	1.73511421e+00	1.80349963e-05	4.72349916e-03	3.27544931e-12	4.07394898e-02
5.74150622e-01	1.29320011e-01	1.46484381e-03	2.23362299e+00	2.63819392e+05	3.00000000e+02	1.97169453e+03	6.60795016e+06	1.72806886e+00	1.80301486e-05	4.61888035e-03	3.31856615e-12	3.97512791e-02
5.72763980e-01	1.29320011e-01	1.46484381e-03	2.22911453e+00	2.62779555e+05	3.00000000e+02	1.94920033e+03	6.55182943e+06	1.71578524e+00	1.80371159e-05	4.51706072e-03	3.22308178e-12	3.88855838e-02
5.71380437e-01	1.29320011e-01	1.46484381e-03	2.20433783e+00	2.59144646e+05	3.00000000e+02	1.95417172e+03	6.46853994e+06	1.70751615e+00	1.80464265e-05	4.42057845e-03	3.19372321e-12	3.81496865e-02
5.69999933e-01	1.29320011e-01	1.46484381e-03	2.16760427e+00	2.54072551e+05	3.00000000e+02	1.96722471e+03	6.39559693e+06	1.69869650e+00	1.80483202e-05	4.32688124e-03	3.16124391e-12	3.73747236e-02
5.68622500e-01	1.29320011e-01	1.46484381e-03	2.12941202e+00	2.48908070e+05	3.00000000e+02	1.97602513e+03	6.33139692e+06	1.68747794e+00	1.80477711e-05	4.23365836e-03	3.07803128e-12	3.65848683e-02
5.88187665e-01	1.29320011e-01	2.05078133e-03	2.08187664e+00	2.41749644e+05	3.00000000e+02	1.89814591e+03	6.11861489e+06	1.63701401e+00	1.80291600e-05	4.93036728e-03	1.95562047e-12	4.24844722e-02
5.86769879e-01	1.29320011e-01	2.05078133e-03	2.03032033e+00	2.34827745e+05	3.00000000e+02	1.94085763e+03	6.01337875e+06	1.63441990e+00	1.80322980e-05	4.86183116e-03	1.87245179e-12	4.19888002e-02
5.85355252e-01	1.29320011e-01	2.05078133e-03	2.00193592e+00	2.31170203e+05	3.00000000e+02	1.98065929e+03	5.97393766e+06	1.63942884e+00	1.80332082e-05	4.79130047e-03	1.87545489e-12	4.14663590e-02
5.83943754e-01	1.29320011e-01	2.05078133e-03	1.99640462e+00	2.30560393e+05	3.00000000e+02	2.01237601e+03	5.98574339e+06	1.65024707e+00	1.80328958e-05	4.71587120e-03	1.94067037e-12	4.08127122e-02
5.82535386e-01	1.29320011e-01	2.05078133e-03	2.00903755e+00	2.32277711e+05	3.00000000e+02	2.03256551e+03	6.03291291e+06	1.66403885e+00	1.80296974e-05	4.63488424e-03	2.01686320e-12	4.00512769e-02
5.81130147e-01	1.29320011e-01	2.05078133e-03	2.03783285e+00	2.36252816e+05	3.00000000e+02	2.04577041e+03	6.11949696e+06	1.68145407e+00	1.80286544e-05	4.54848595e-03	2.09324854e-12	3.92860719e-02
5.79728007e-01	1.29320011e-01	2.05078133e-03	2.08215874e+00	2.42278657e+05	3.00000000e+02	2.06579000e+03	6.20293474e+06	1.70689147e+00	1.80397158e-05	4.45769174e-03	2.28619004e-12	3.86185396e-02
5.78328997e-01	1.29320011e-01	2.05078133e-03	2.13228059e+00	2.49157439e+05	3.00000000e+02	2.07941390e+03	6.31444951e+06	1.73246188e+00	1.80453187e-05	4.36223020e-03	2.57473490e-12	3.78666577e-02
5.76933116e-01	1.29320011e-01	2.05078133e-03	2.18003975e+00	2.55715010e+05	3.00000000e+02	2.07136406e+03	6.43007158e+06	1.74848975e+00	1.80440047e-05	4.26200612e-03	2.82644905e-12	3.70200374e-02
5.75540334e-01	1.29320011e-01	2.05078133e-03	2.21865629e+00	2.60903646e+05	3.00000000e+02	2.04792662e+03	6.50604003e+06	1.75374278e+00	1.80456242e-05	4.16054805e-03	2.99303315e-12	3.61016136e-02
5.74150622e-01	1.29320011e-01	2.05078133e-03	2.23852634e+00	2.63205828e+05	3.00000000e+02	2.02251252e+03	6.50555980e+06	1.75001920e+00	1.80517578e-05	4.06163209e-03	3.03984939e-12	3.51674627e-02
5.72763979e-01	1.29320011e-01	2.05078133e-03	2.23394760e+00	2.62359341e+05	3.00000000e+02	2.00969805e+03	6.47251219e+06	1.74211940e+00	1.80575812e-05	3.96878770e-03	3.03244773e-12	3.45091568e-02
5.71380436e-01	1.29320011e-01	2.05078133e-03	2.20972720e+00	2.59013359e+05	3.00000000e+02	2.01033650e+03	6.42432849e+06	1.73274474e+00	1.80594583e-05	3.88175810e-03	3.02907470e-12	3.38768275e-02
5.69999933e-01	1.29320011e-01	2.05078133e-03	2.17487194e+00	2.54233971e+05	3.00000000e+02	2.01195868e+03	6.36415864e+06	1.71990189e+00	1.80575280e-05	3.79779937e-03	2.97640605e-12	3.31235132e-02
5.68622500e-01	1.29320011e-01	2.05078133e-03	2.13807764e+00	2.49085711e+05	3.00000000e+02	2.00608017e+03	6.30001824e+06	1.70352655e+00	1.80498072e-05	3.71447127e-03	2.81333061e-12	3.23030046e-02
5.89608640e-01	1.29320011e-01	2.63671891e-03	2.15979723e+00	2.51230326e+05	3.00000000e+02	1.92874543e+03	6.20984198e+06	1.67961430e+00	1.80413893e-05	4.28671238e-03	1.98679557e-12	3.74586340e-02
5.88187664e-01	1.29320011e-01	2.63671891e-03	2.09167475e+00	2.42066183e+05	3.00000000e+02	1.95624984e+03	6.08248263e+06	1.66476837e+00	1.80401862e-05	4.22894694e-03	1.83649916e-12	3.69476660e-02
5.86769879e-01	1.29320011e-01	2.63671891e-03	2.04204750e+00	2.35382371e+05	3.00000000e+02	1.98815272e+03	5.98105414e+06	1.65813170e+00	1.80415715e-05	4.17166183e-03	1.74883020e-12	3.64025888e-02
5.85355252e-01	1.29320011e-01	2.63671891e-03	2.01514054e+00	2.31724895e+05	3.00000000e+02	2.01829625e+03	5.92280345e+06	1.65938792e+00	1.80439992e-05	4.11039622e-03	1.71201774e-12	3.57864547e-02
5.83943754e-01	1.29320011e-01	2.63671891e-03	2.01040426e+00	2.31072835e+05	3.00000000e+02	2.04689173e+03	5.90870743e+06	1.66857301e+00	1.80500960e-05	4.04316177e-03	1.72375806e-12	3.52099064e-02
5.82535386e-01	1.29320011e-01	2.63671891e-03	2.02313638e+00	2.32867129e+05	3.00000000e+02	2.07898980e+03	5.94655944e+06	1.68650665e+00	1.80545346e-05	3.96998169e-03	1.81047525e-12	3.46827842e-02
5.81130147e-01	1.29320011e-01	2.63671891e-03	2.05125327e+00	2.36869722e+05	3.00000000e+02	2.10816473e+03	6.03343399e+06	1.70984279e+00	1.80568225e-05	3.89027510e-03	1.97225178e-12	3.41235835e-02
5.79728007e-01	1.29320011e-01	2.63671891e-03	2.09274373e+00	2.42550512e+05	3.00000000e+02	2.12283579e+03	6.14120491e+06	1.73315908e+00	1.80556611e-05	3.80285984e-03	2.17121779e-12	3.33796829e-02
5.78328996e-01	1.29320011e-01	2.63671891e-03	2.13964343e+00	2.48798134e+05	3.00000000e+02	2.11464214e+03	6.25532402e+06	1.74986112e+00	1.80476707e-05	3.70843890e-03	2.30388241e-12	3.24884362e-02
5.76933116e-01	1.29320011e-01	2.63671891e-03	2.18581454e+00	2.55025237e+05	3.00000000e+02	2.09740725e+03	6.34737211e+06	1.76101734e+00	1.80517788e-05	3.61140386e-03	2.37335084e-12	3.16510472e-02
5.75540334e-01	1.29320011e-01	2.63671891e-03	2.22379804e+00	2.60108729e+05	3.00000000e+02	2.09536147e+03	6.39594727e+06	1.77395973e+00	1.80662904e-05	3.51677709e-03	2.55503639e-12	3.09486400e-02
5.74150622e-01	1.29320011e-01	2.63671891e-03	2.24183747e+00	2.62468117e+05	3.00000000e+02	2.09021962e+03	6.41846939e+06	1.77823239e+00	1.80736181e-05	3.42615020e-03	2.72268590e-12	3.02090733e-02
5.72763980e-01	1.29320011e-01	2.63671891e-03	2.23746078e+00	2.61796389e+05	3.00000000e+02	2.07645062e+03	6.41125886e+06	1.77060788e+00	1.80738937e-05	3.34189499e-03	2.76030918e-12	2.94852194e-02
5.71380436e-01	1.29320011e-01	2.63671891e-03	2.21620936e+00	2.58748097e+05	3.00000000e+02	2.06500048e+03	6.36269199e+06	1.75731060e+00	1.80739276e-05	3.26445589e-03	2.71091596e-12	2.87419089e-02
5.69999934e-01	1.29320011e-01	2.63671891e-03	2.18555949e+00	2.54308621e+05	3.00000000e+02	2.05758089e+03	6.28447821e+06	1.74197890e+00	1.80739252e-05	3.19185821e-03	2.59659375e-12	2.79774773e-02
5.68622500e-01	1.29320011e-01	2.63671891e-03	2.15240439e+00	2.49470894e+05	3.00000000e+02	2.05525046e+03	6.18228772e+06	1.72728166e+00	1.80786811e-05	3.12171966e-03	2.45186002e-12	2.73998312e-02
5.89608640e-01	1.29320011e-01	3.22265644e-03	2.17192840e+00	2.51096264e+05	3.00000000e+02	1.97326249e+03	6.10172498e+06	1.70208339e+00	1.80580123e-05	3.54266326e-03	1.67045727e-12	3.13574516e-02
5.88187665e-01	1.29320011e-01	3.22265643e-03	2.10808818e+00	2.42523514e+05	3.00000000e+02	2.00748220e+03	5.96702869e+06	1.69078607e+00	1.80641351e-05	3.49836883e-03	1.56806333e-12	3.10050467e-02
5.86769879e-01	1.29320011e-01	3.22265643e-03	2.05981381e+00	2.36192800e+05	3.00000000e+02	2.04484979e+03	5.87864159e+06	1.68637633e+00	1.80686534e-05	3.45411438e-03	1.51988813e-12	3.06352439e-02
5.85355252e-01	1.29320011e-01	3.22265644e-03	2.03217803e+00	2.32677562e+05	3.00000000e+02	2.08127266e+03	5.84137403e+06	1.68961941e+00	1.80714114e-05	3.40418508e-03	1.52610216e-12	3.02034585e-02
5.83943754e-01	1.29320011e-01	3.22265643e-03	2.02587049e+00	2.32005072e+05	3.00000000e+02	2.11168894e+03	5.85422590e+06	1.69928343e+00	1.80713496e-05	3.34612740e-03	1.57214797e-12	2.96920103e-02
5.82535386e-01	1.29320011e-01	3.22265644e-03	2.03758955e+00	2.33670721e+05	3.00000000e+02	2.13360599e+03	5.89818915e+06	1.71304625e+00	1.80709911e-05	3.27951646e-03	1.63851602e-12	2.90927988e-02
5.81130147e-01	1.29320011e-01	3.22265643e-03	2.06500532e+00	2.37303973e+05	3.00000000e+02	2.14771480e+03	5.96328796e+06	1.73027343e+00	1.80704826e-05	3.20479900e-03	1.71077314e-12	2.83666471e-02
5.79728007e-01	1.29320011e-01	3.22265643e-03	2.10396056e+00	2.42539619e+05	3.00000000e+02	2.15673560e+03	6.04706528e+06	1.74971476e+00	1.80753033e-05	3.12245100e-03	1.78999330e-12	2.76804906e-02
5.78328996e-01	1.29320011e-01	3.22265644e-03	2.14873541e+00	2.48658409e+05	3.00000000e+02	2.16866055e+03	6.14636781e+06	1.77255232e+00	1.80810561e-05	3.03501023e-03	1.93254973e-12	2.70713299e-02
5.76933116e-01	1.29320011e-01	3.22265643e-03	2.19237217e+00	2.54616511e+05	3.00000000e+02	2.17352704e+03	6.24002315e+06	1.79202816e+00	1.80854963e-05	2.94610769e-03	2.12330852e-12	2.64127686e-02
5.75540334e-01	1.29320011e-01	3.22265643e-03	2.22590657e+00	2.59098591e+05	3.00000000e+02	2.16053803e+03	6.31142477e+06	1.80039432e+00	1.80843285e-05	2.85787649e-03	2.26956580e-12	2.56086642e-02
5.74150622e-01	1.29320011e-01	3.22265644e-03	2.24240444e+00	2.61171076e+05	3.00000000e+02	2.13091863e+03	6.35240563e+06	1.79542919e+00	1.80762242e-05	2.77371908e-03	2.26986729e-12	2.47762743e-02
5.72763980e-01	1.29320011e-01	3.22265644e-03	2.24253439e+00	2.60841670e+05	3.00000000e+02	2.11075174e+03	6.30961028e+06	1.78611920e+00	1.80847825e-05	2.69872703e-03	2.20247544e-12	2.41259017e-02
5.71380437e-01	1.29320011e-01	3.22265643e-03	2.22626767e+00	2.58354588e+05	3.00000000e+02	2.11373881e+03	6.23723712e+06	1.77981330e+00	1.80957046e-05	2.63343825e-03	2.17892826e-12	2.36253642e-02
5.69999933e-01	1.29320011e-01	3.22265643e-03	2.19842588e+00	2.54517734e+05	3.00000000e+02	2.12333590e+03	6.16976257e+06	1.77193111e+00	1.81031450e-05	2.57428847e-03	2.16229438e-12	2.31404275e-02
5.68622500e-01	1.29320011e-01	3.22265643e-03	2.16526744e+00	2.50017477e+05	3.00000000e+02	2.12987653e+03	6.10139389e+06	1.76080953e+00	1.81074045e-05	2.51739168e-03	2.12653347e-12	2.26557773e-02
5.89608640e-01	1.29320011e-01	3.80859396e-03	2.17840492e+00	2.51027177e+05	3.00000000e+02	2.05639153e+03	6.05863901e+06	1.73794927e+00	1.80809277e-05	2.83284909e-03	1.47256036e-12	2.56262770e-02
5.88187664e-01	1.29320011e-01	3.80859396e-03	2.11965777e+00	2.43144367e+05	3.00000000e+02	2.07047390e+03	5.95026676e+06	1.72048601e+00	1.80780759e-05	2.79862595e-03	1.37550964e-12	2.52493653e-02
5.86769879e-01	1.29320011e-01	3.80859396e-03	2.07496023e+00	2.37152817e+05	3.00000000e+02	2.08538276e+03	5.86975548e+06	1.70878367e+00	1.80736675e-05	2.76393074e-03	1.29564493e-12	2.48730838e-02
5.85355252e-01	1.29320011e-01	3.80859396e-03	2.04987670e+00	2.33687518e+05	3.00000000e+02	2.10373537e+03	5.80614297e+06	1.70574140e+00	1.80751467e-05	2.72341767e-03	1.23659519e-12	2.45006508e-02
5.83943754e-01	1.29320011e-01	3.80859396e-03	2.04411899e+00	2.32936423e+05	3.00000000e+02	2.13552082e+03	5.78333977e+06	1.71526919e+00	1.80845748e-05	2.67482713e-03	1.23778230e-12	2.41392598e-02
5.82535386e-01	1.29320011e-01	3.80859396e-03	2.05493285e+00	2.34547126e+05	3.00000000e+02	2.17318400e+03	5.81478310e+06	1.73401381e+00	1.80938136e-05	2.61733736e-03	1.30507573e-12	2.36978280e-02
5.81130147e-01	1.29320011e-01	3.80859396e-03	2.08043755e+00	2.38112844e+05	3.00000000e+02	2.20599813e+03	5.87994004e+06	1.75710378e+00	1.81016472e-05	2.55111318e-03	1.41773559e-12	2.31540156e-02
5.79728007e-01	1.29320011e-01	3.80859396e-03	2.11608176e+00	2.42953524e+05	3.00000000e+02	2.22783842e+03	5.96310032e+06	1.78044113e+00	1.81057302e-05	2.47679292e-03	1.54959626e-12	2.25152721e-02
5.78328996e-01	1.29320011e-01	3.80859396e-03	2.15639346e+00	2.48374115e+05	3.00000000e+02	2.23286169e+03	6.05742311e+06	1.79948722e+00	1.81043002e-05	2.39620473e-03	1.66896503e-12	2.18049687e-02
5.76933116e-01	1.29320011e-01	3.80859396e-03	2.19590204e+00	2.53563960e+05	3.00000000e+02	2.21906488e+03	6.14064940e+06	1.81068630e+00	1.81002204e-05	2.31344166e-03	1.73913544e-12	2.09858464e-02
5.75540334e-01	1.29320011e-01	3.80859396e-03	2.22658321e+00	2.57618577e+05	3.00000000e+02	2.19603042e+03	6.20365469e+06	1.81385032e+00	1.80997590e-05	2.23351499e-03	1.74835017e-12	2.02473662e-02
5.74150622e-01	1.29320011e-01	3.80859396e-03	2.24496458e+00	2.59907485e+05	3.00000000e+02	2.18409558e+03	6.21880180e+06	1.81585043e+00	1.81048983e-05	2.16127566e-03	1.76490440e-12	1.97513549e-02
5.72763980e-01	1.29320011e-01	3.80859396e-03	2.24596470e+00	2.59967009e+05	3.00000000e+02	2.18167917e+03	6.20643668e+06	1.81451299e+00	1.81122506e-05	2.09901778e-03	1.78831749e-12	1.93631181e-02
5.71380436e-01	1.29320011e-01	3.80859396e-03	2.23137117e+00	2.57968878e+05	3.00000000e+02	2.18224434e+03	6.17280454e+06	1.80833235e+00	1.81173612e-05	2.04480063e-03	1.79491588e-12	1.89570179e-02
5.69999934e-01	1.29320011e-01	3.80859396e-03	2.20671417e+00	2.54625290e+05	3.00000000e+02	2.18110306e+03	6.12375467e+06	1.79754206e+00	1.81203954e-05	1.99562711e-03	1.77336547e-12	1.85219879e-02
5.68622500e-01	1.29320011e-01	3.80859396e-03	2.17574290e+00	2.50376095e+05	3.00000000e+02	2.17561614e+03	6.05923297e+06	1.78256002e+00	1.81211752e-05	1.94820542e-03	1.72272518e-12	1.80442417e-02
5.89608640e-01	1.29320011e-01	4.39453149e-03	2.18935929e+00	2.50869825e+05	3.00000000e+02	2.10561158e+03	5.95707695e+06	1.76104383e+00	1.81014382e-05	2.19026513e-03	1.15226730e-12	2.00695372e-02
5.88187665e-01	1.29320011e-01	4.39453149e-03	2.13759264e+00	2.43820842e+05	3.00000000e+02	2.11716746e+03	5.84153037e+06	1.74474615e+00	1.81027030e-05	2.16486530e-03	1.07174880e-12	1.98869302e-02
5.86769879e-01	1.29320011e-01	4.39453149e-03	2.09745498e+00	2.38416995e+05	3.00000000e+02	2.13552071e+03	5.75200670e+06	1.73552226e+00	1.81052125e-05	2.13980139e-03	1.01544948e-12	1.97445269e-02
5.85355252e-01	1.29320011e-01	4.39453149e-03	2.07238898e+00	2.35192197e+05	3.00000000e+02	2.16186904e+03	5.70902154e+06	1.73541611e+00	1.81084926e-05	2.10954987e-03	9.92980390e-13	1.95765735e-02
5.83943754e-01	1.29320011e-01	4.39453148e-03	2.06471026e+00	2.34370899e+05	3.00000000e+02	2.19371381e+03	5.71158475e+06	1.74451603e+00	1.81125742e-05	2.07059536e-03	1.01080193e-12	1.93162234e-02
5.82535386e-01	1.29320011e-01	4.39453148e-03	2.07382767e+00	2.35745246e+05	3.00000000e+02	2.22553785e+03	5.74624990e+06	1.76057817e+00	1.81169092e-05	2.02158454e-03	1.06535679e-12	1.89185719e-02
5.81130147e-01	1.29320011e-01	4.39453148e-03	2.09683789e+00	2.38876170e+05	3.00000000e+02	2.24910740e+03	5.80366466e+06	1.77941105e+00	1.81195262e-05	1.96300324e-03	1.13815880e-12	1.83726570e-02
5.79728007e-01	1.29320011e-01	4.39453148e-03	2.12785975e+00	2.42974601e+05	3.00000000e+02	2.25760550e+03	5.87441032e+06	1.79609941e+00	1.81176037e-05	1.89633840e-03	1.19295210e-12	1.77081233e-02
5.78328996e-01	1.29320011e-01	4.39453149e-03	2.16208776e+00	2.47641005e+05	3.00000000e+02	2.25475755e+03	5.96426230e+06	1.80954351e+00	1.81156179e-05	1.82487167e-03	1.21415607e-12	1.70252532e-02
5.76933116e-01	1.29320011e-01	4.39453148e-03	2.19829795e+00	2.52491389e+05	3.00000000e+02	2.25959900e+03	6.02417155e+06	1.82544672e+00	1.81269776e-05	1.75367397e-03	1.26744406e-12	1.64577670e-02
5.75540334e-01	1.29320011e-01	4.39453148e-03	2.22706765e+00	2.56321860e+05	3.00000000e+02	2.26681169e+03	6.07056526e+06	1.83939318e+00	1.81357471e-05	1.68705814e-03	1.34627127e-12	1.59299916e-02
5.74150622e-01	1.29320011e-01	4.39453149e-03	2.24398108e+00	2.58617924e+05	3.00000000e+02	2.26734617e+03	6.10419543e+06	1.84603034e+00	1.81411692e-05	1.62753596e-03	1.41013301e-12	1.54428476e-02
5.72763980e-01	1.29320011e-01	4.39453149e-03	2.24702024e+00	2.59018142e+05	3.00000000e+02	2.26141879e+03	6.11193846e+06	1.84460046e+00	1.81437592e-05	1.57566179e-03	1.44000476e-12	1.50107139e-02
5.71380437e-01	1.29320011e-01	4.39453149e-03	2.23640238e+00	2.57558740e+05	3.00000000e+02	2.25269516e+03	6.09493855e+06	1.83669953e+00	1.81436086e-05	1.53034509e-03	1.43645985e-12	1.46396152e-02
5.69999933e-01	1.29320011e-01	4.39453148e-03	2.21564180e+00	2.54697097e+05	3.00000000e+02	2.24206726e+03	6.05545898e+06	1.82396798e+00	1.81423057e-05	1.48936584e-03	1.40647703e-12	1.42601605e-02
5.88187664e-01	1.29320011e-01	4.98046889e-03	2.15259183e+00	2.44706208e+05	3.00000000e+02	2.18967100e+03	5.76066574e+06	1.77704359e+00	1.81387683e-05	1.62711678e-03	8.40727922e-13	1.56300763e-02
5.86769879e-01	1.29320011e-01	4.98046889e-03	2.11664849e+00	2.40004814e+05	3.00000000e+02	2.20673924e+03	5.69651682e+06	1.76885453e+00	1.81402538e-05	1.60870525e-03	8.15889438e-13	1.54625130e-02
5.85355252e-01	1.29320011e-01	4.98046889e-03	2.09374313e+00	2.37068908e+05	3.00000000e+02	2.22676373e+03	5.66167357e+06	1.76707696e+00	1.81417385e-05	1.58495682e-03	8.08263342e-13	1.52466581e-02
5.83943754e-01	1.29320011e-01	4.98046889e-03	2.08583931e+00	2.36116487e+05	3.00000000e+02	2.24765722e+03	5.65819913e+06	1.77187869e+00	1.81429154e-05	1.55256082e-03	8.16298052e-13	1.49582856e-02
5.82535386e-01	1.29320011e-01	4.98046889e-03	2.09249391e+00	2.37080293e+05	3.00000000e+02	2.26613129e+03	5.68688382e+06	1.78202967e+00	1.81424235e-05	1.51059266e-03	8.38230281e-13	1.45915670e-02
5.81130147e-01	1.29320011e-01	4.98046889e-03	2.11126243e+00	2.39602295e+05	3.00000000e+02	2.27829390e+03	5.73837085e+06	1.79500736e+00	1.81403368e-05	1.46002827e-03	8.66419848e-13	1.40980002e-02
5.79728007e-01	1.29320011e-01	4.98046889e-03	2.13733479e+00	2.43032628e+05	3.00000000e+02	2.28149841e+03	5.80164799e+06	1.80776086e+00	1.81359780e-05	1.40314384e-03	8.86351720e-13	1.35069506e-02
5.78328997e-01	1.29320011e-01	4.98046889e-03	2.16690620e+00	2.46958569e+05	3.00000000e+02	2.27832329e+03	5.87211502e+06	1.81929838e+00	1.81325713e-05	1.34357138e-03	8.91828847e-13	1.29456766e-02
5.76933116e-01	1.29320011e-01	4.98046889e-03	2.19724550e+00	2.51023727e+05	3.00000000e+02	2.28071669e+03	5.93527214e+06	1.83267127e+00	1.81353519e-05	1.28511283e-03	9.13051179e-13	1.25221016e-02
5.75540334e-01	1.29320011e-01	4.98046889e-03	2.22271748e+00	2.54562666e+05	3.00000000e+02	2.28691685e+03	5.99227331e+06	1.84505989e+00	1.81423043e-05	1.23056579e-03	9.51695515e-13	1.21650711e-02
5.74150622e-01	1.29320011e-01	4.98046889e-03	2.24031626e+00	2.57002432e+05	3.00000000e+02	2.29298935e+03	6.02830615e+06	1.85408444e+00	1.81493791e-05	1.18212833e-03	9.97672585e-13	1.18318401e-02
5.72763980e-01	1.29320011e-01	4.98046889e-03	2.24649405e+00	2.57881253e+05	3.00000000e+02	2.29236050e+03	6.04176950e+06	1.85583671e+00	1.81547357e-05	1.13998197e-03	1.02522567e-12	1.15008530e-02
5.71380436e-01	1.29320011e-01	4.98046889e-03	2.24052390e+00	2.57046080e+05	3.00000000e+02	2.28675121e+03	6.02578459e+06	1.85070957e+00	1.81585671e-05	1.10325545e-03	1.02755279e-12	1.11758439e-02
5.69999934e-01	1.29320011e-01	4.98046889e-03	2.22328844e+00	2.54619527e+05	3.00000000e+02	2.27718088e+03	5.98165725e+06	1.83945508e+00	1.81611389e-05	1.07008974e-03	1.00518888e-12	1.08507992e-02
5.88187664e-01	1.29320011e-01	5.56640653e-03	2.16763953e+00	2.45563069e+05	3.00000000e+02	2.21633435e+03	5.71576177e+06	1.79320082e+00	1.81475431e-05	1.18479964e-03	6.01805452e-13	1.19427963e-02
5.86769879e-01	1.29320011e-01	5.56640653e-03	2.13768629e+00	2.41612065e+05	3.00000000e+02	2.22863545e+03	5.65743621e+06	1.78553748e+00	1.81492268e-05	1.17052203e-03	5.81233494e-13	1.18563107e-02
5.85355252e-01	1.29320011e-01	5.56640653e-03	2.11719175e+00	2.38995873e+05	3.00000000e+02	2.24638482e+03	5.62496637e+06	1.78379103e+00	1.81515533e-05	1.15189418e-03	5.74572716e-13	1.17207257e-02
5.83943754e-01	1.29320011e-01	5.56640653e-03	2.10840598e+00	2.37964411e+05	3.00000000e+02	2.26773528e+03	5.61911314e+06	1.78820564e+00	1.81547986e-05	1.12590555e-03	5.80979095e-13	1.14962685e-02
5.82535386e-01	1.29320011e-01	5.56640653e-03	2.11185427e+00	2.38526818e+05	3.00000000e+02	2.28837288e+03	5.63598287e+06	1.79742928e+00	1.81584658e-05	1.09177942e-03	5.96425857e-13	1.11650725e-02
5.81130147e-01	1.29320011e-01	5.56640653e-03	2.12549860e+00	2.40390740e+05	3.00000000e+02	2.30428935e+03	5.67038273e+06	1.80919700e+00	1.81613720e-05	1.05065821e-03	6.15065358e-13	1.07366699e-02
5.79728007e-01	1.29320011e-01	5.56640653e-03	2.14564203e+00	2.43086558e+05	3.00000000e+02	2.31397624e+03	5.71785791e+06	1.82148392e+00	1.81621950e-05	1.00502979e-03	6.31235329e-13	1.02416261e-02
5.78328997e-01	1.29320011e-01	5.56640653e-03	2.16954046e+00	2.46317076e+05	3.00000000e+02	2.31859088e+03	5.77732494e+06	1.83347759e+00	1.81616762e-05	9.58031729e-04	6.43738974e-13	9.73451935e-03
5.76933116e-01	1.29320011e-01	5.56640653e-03	2.19506293e+00	2.49779011e+05	3.00000000e+02	2.32329575e+03	5.83640391e+06	1.84595581e+00	1.81631025e-05	9.12414891e-04	6.60821951e-13	9.26754423e-03
5.75540334e-01	1.29320011e-01	5.56640653e-03	2.21857241e+00	2.53019245e+05	3.00000000e+02	2.32994450e+03	5.88883885e+06	1.85791270e+00	1.81685340e-05	8.70176848e-04	6.87579105e-13	8.89263692e-03
5.74150622e-01	1.29320011e-01	5.56640653e-03	2.23652623e+00	2.55538886e+05	3.00000000e+02	2.33458306e+03	5.93283983e+06	1.86680559e+00	1.81730644e-05	8.32505188e-04	7.17476293e-13	8.56303382e-03
5.72763979e-01	1.29320011e-01	5.56640653e-03	2.24563157e+00	2.56838956e+05	3.00000000e+02	2.33143062e+03	5.95704123e+06	1.86897622e+00	1.81765863e-05	7.99375595e-04	7.34604096e-13	8.26837244e-03
5.71380436e-01	1.29320011e-01	5.56640653e-03	2.24345424e+00	2.56514662e+05	3.00000000e+02	2.32119355e+03	5.94940795e+06	1.86368806e+00	1.81792791e-05	7.70106039e-04	7.31400396e-13	8.00779392e-03
5.69999934e-01	1.29320011e-01	5.56640653e-03	2.22865457e+00	2.54389235e+05	3.00000000e+02	2.30660375e+03	5.90718750e+06	1.85147097e+00	1.81813683e-05	7.43489838e-04	7.07806070e-13	7.77141255e-03
5.88187664e-01	1.29320011e-01	6.15234417e-03	2.18186645e+00	2.46563181e+05	3.00000000e+02	2.25775417e+03	5.66257475e+06	1.81356973e+00	1.81699506e-05	8.39153286e-04	4.33462035e-13	8.83976758e-03
5.86769879e-01	1.29320011e-01	6.15234417e-03	2.15890145e+00	2.43441545e+05	3.00000000e+02	2.26153029e+03	5.60842377e+06	1.80535983e+00	1.81714438e-05	8.27100326e-04	4.16882716e-13	8.72710445e-03
5.85355252e-01	1.29320011e-01	6.15234417e-03	2.14192165e+00	2.41170388e+05	3.00000000e+02	2.26985411e+03	5.57136041e+06	1.80138420e+00	1.81731416e-05	8.12002710e-04	4.06703516e-13	8.59373144e-03