VARIABLES ="X" "Y" "Z" "rho" "press" "temp" "tau_wall" "qdot" "yplus" "muLam" "ZMean" "ZVar" "CMean" 
Zone T ="wall" I = 7342 , F = point
4.84159381e-01	1.19520001e-01	8.49609403e-03	1.65630006e+00	1.99628384e+05	3.00000000e+02	2.00034176e+03	5.51404777e+06	1.97076300e+00	1.81667649e-05	9.88871155e-04	3.37984027e-13	9.53786393e-03
4.84159381e-01	1.19520001e-01	7.91015662e-03	1.62294274e+00	1.97931352e+05	3.00000000e+02	1.90761908e+03	5.70874315e+06	1.91264229e+00	1.80948112e-05	2.66110428e-03	1.53361898e-12	2.36931274e-02
4.84159381e-01	1.19520001e-01	7.32421899e-03	1.58395454e+00	1.95502012e+05	3.00000000e+02	1.77674734e+03	5.86358471e+06	1.83151949e+00	1.80161933e-05	5.56838947e-03	4.08006688e-12	4.74120680e-02
4.84159381e-01	1.19520001e-01	6.73828157e-03	1.53055039e+00	1.93191692e+05	3.00000000e+02	1.65929583e+03	6.17996125e+06	1.74444301e+00	1.79688104e-05	9.47175868e-03	7.22423698e-12	7.82674145e-02
4.84159380e-01	1.19520001e-01	6.15234417e-03	1.47125798e+00	1.91202867e+05	3.00000000e+02	1.62383320e+03	6.64304489e+06	1.69404402e+00	1.79465436e-05	1.37029147e-02	9.84146698e-12	1.09979179e-01
4.84159380e-01	1.19520001e-01	5.56640653e-03	1.41180724e+00	1.89560564e+05	3.00000000e+02	1.66852760e+03	7.22749372e+06	1.68294791e+00	1.79380038e-05	1.77075452e-02	1.22637292e-11	1.37984812e-01
4.84159380e-01	1.19520001e-01	4.98046889e-03	1.35077169e+00	1.88375421e+05	3.00000000e+02	1.78144919e+03	8.00411585e+06	1.70156461e+00	1.79316245e-05	2.15405562e-02	1.78800405e-11	1.62387928e-01
4.84159381e-01	1.19520001e-01	9.08203143e-03	1.67549745e+00	2.01731861e+05	3.00000000e+02	2.05065181e+03	5.51439615e+06	2.00344773e+00	1.81982747e-05	3.28247920e-04	4.98951755e-14	3.85928464e-03
4.82972532e-01	1.19520001e-01	9.08203144e-03	1.65935824e+00	1.99945014e+05	3.00000000e+02	2.05249922e+03	5.52934295e+06	1.99436950e+00	1.82010457e-05	3.06073536e-04	4.17139472e-14	3.62713894e-03
4.81788292e-01	1.19520001e-01	9.08203144e-03	1.62662405e+00	1.96035831e+05	3.00000000e+02	2.06611452e+03	5.53247538e+06	1.98085897e+00	1.82036139e-05	2.84154440e-04	3.53573474e-14	3.38728671e-03
4.80606675e-01	1.19520001e-01	9.08203144e-03	1.57899568e+00	1.90188097e+05	3.00000000e+02	2.09409695e+03	5.52095585e+06	1.96456967e+00	1.82058857e-05	2.63334744e-04	3.10509187e-14	3.14813382e-03
4.79427695e-01	1.19520001e-01	9.08203144e-03	1.52301055e+00	1.83207259e+05	3.00000000e+02	2.13867190e+03	5.49511760e+06	1.94965126e+00	1.82077795e-05	2.44546341e-04	2.89962936e-14	2.92206864e-03
4.78251323e-01	1.19520001e-01	9.08203144e-03	1.47364076e+00	1.77044456e+05	3.00000000e+02	2.18720975e+03	5.47005587e+06	1.93927248e+00	1.82092719e-05	2.28587969e-04	2.86064954e-14	2.72006303e-03
4.82972532e-01	1.19520001e-01	8.49609403e-03	1.64224251e+00	1.98360373e+05	3.00000000e+02	2.01646319e+03	5.55876837e+06	1.96997537e+00	1.81695170e-05	9.05275767e-04	2.89039380e-13	8.73776351e-03
4.81788292e-01	1.19520001e-01	8.49609403e-03	1.61628601e+00	1.95293088e+05	3.00000000e+02	2.04141169e+03	5.56147449e+06	1.96530987e+00	1.81795762e-05	8.13999354e-04	2.41796614e-13	7.96277483e-03
4.80606675e-01	1.19520001e-01	8.49609403e-03	1.58042162e+00	1.90940617e+05	3.00000000e+02	2.07776628e+03	5.56162246e+06	1.95996924e+00	1.81855298e-05	7.23146569e-04	2.04953080e-13	7.17937768e-03
4.79427695e-01	1.19520001e-01	8.49609403e-03	1.53524370e+00	1.85296141e+05	3.00000000e+02	2.12030489e+03	5.54855130e+06	1.95123894e+00	1.81872799e-05	6.41085771e-04	1.77005849e-13	6.43946230e-03
4.78251323e-01	1.19520001e-01	8.49609403e-03	1.48959547e+00	1.79660448e+05	3.00000000e+02	2.16513611e+03	5.54075982e+06	1.94227092e+00	1.81868443e-05	5.78068269e-04	1.60771702e-13	5.82375750e-03
4.82972532e-01	1.19520001e-01	7.91015662e-03	1.61826928e+00	1.96752601e+05	3.00000000e+02	1.94492060e+03	5.64540976e+06	1.92697823e+00	1.81088099e-05	2.43104600e-03	1.40942347e-12	2.17716147e-02
4.81788292e-01	1.19520001e-01	7.91015663e-03	1.59493933e+00	1.94911425e+05	3.00000000e+02	1.95368247e+03	5.76960121e+06	1.91717849e+00	1.81103528e-05	2.17226523e-03	1.12843579e-12	1.94980011e-02
4.80606676e-01	1.19520001e-01	7.91015663e-03	1.58143250e+00	1.92296332e+05	3.00000000e+02	2.00312752e+03	5.67106319e+06	1.93172568e+00	1.81227693e-05	1.91179200e-03	9.97818270e-13	1.73037495e-02
4.79427695e-01	1.19520001e-01	7.91015663e-03	1.54740525e+00	1.87956648e+05	3.00000000e+02	2.03024582e+03	5.63831201e+06	1.92128697e+00	1.81457320e-05	1.67596272e-03	8.24986423e-13	1.52587258e-02
4.78251323e-01	1.19520001e-01	7.91015663e-03	1.51216271e+00	1.82931416e+05	3.00000000e+02	2.07276168e+03	5.57513889e+06	1.91917430e+00	1.81447051e-05	1.48584797e-03	7.27194894e-13	1.36333767e-02
4.82972532e-01	1.19520001e-01	7.32421899e-03	1.58006604e+00	1.95358139e+05	3.00000000e+02	1.80611035e+03	5.91691986e+06	1.84358235e+00	1.80234366e-05	5.14160179e-03	3.77014766e-12	4.39312076e-02
4.81788293e-01	1.19520001e-01	7.32421899e-03	1.57679365e+00	1.94674784e+05	3.00000000e+02	1.83951590e+03	5.90727745e+06	1.85749853e+00	1.80343756e-05	4.64842905e-03	3.35137236e-12	3.98384854e-02
4.80606676e-01	1.19520001e-01	7.32421899e-03	1.56744523e+00	1.93432700e+05	3.00000000e+02	1.87610669e+03	5.90799322e+06	1.86859119e+00	1.80509907e-05	4.14495896e-03	2.94363907e-12	3.57024260e-02
4.79427695e-01	1.19520001e-01	7.32421898e-03	1.55296277e+00	1.91391646e+05	3.00000000e+02	1.91332124e+03	5.91176927e+06	1.87808588e+00	1.80530010e-05	3.67382024e-03	2.53366834e-12	3.18495419e-02
4.78251323e-01	1.19520001e-01	7.32421899e-03	1.53674268e+00	1.88613475e+05	3.00000000e+02	1.96060869e+03	5.81877875e+06	1.88863948e+00	1.80774579e-05	3.27771473e-03	2.36858188e-12	2.86346499e-02
4.82972532e-01	1.19520001e-01	6.73828158e-03	1.53883261e+00	1.94084377e+05	3.00000000e+02	1.68065223e+03	6.18872442e+06	1.75981942e+00	1.79745033e-05	8.89227625e-03	7.06375796e-12	7.36951189e-02
4.81788293e-01	1.19520001e-01	6.73828158e-03	1.54623268e+00	1.94684350e+05	3.00000000e+02	1.70776635e+03	6.17936378e+06	1.77724041e+00	1.79843960e-05	8.20400822e-03	6.67945589e-12	6.81943122e-02
4.80606676e-01	1.19520001e-01	6.73828158e-03	1.55121201e+00	1.95063396e+05	3.00000000e+02	1.73993065e+03	6.18217953e+06	1.79589016e+00	1.79933556e-05	7.47121802e-03	6.20938332e-12	6.23522465e-02
4.79427695e-01	1.19520001e-01	6.73828157e-03	1.54908336e+00	1.94732015e+05	3.00000000e+02	1.77645597e+03	6.20183613e+06	1.81208904e+00	1.80063409e-05	6.75958011e-03	5.75291293e-12	5.66291792e-02
4.78251323e-01	1.19520001e-01	6.73828158e-03	1.54092889e+00	1.93316468e+05	3.00000000e+02	1.80392622e+03	6.18421947e+06	1.82052881e+00	1.80133096e-05	6.13822678e-03	5.31702938e-12	5.16437592e-02
4.77077573e-01	1.19520001e-01	6.73828158e-03	1.52188149e+00	1.89988953e+05	3.00000000e+02	1.83261492e+03	6.08831440e+06	1.82235161e+00	1.80253720e-05	5.66739884e-03	5.07259087e-12	4.78070072e-02
4.82972532e-01	1.19520001e-01	6.15234417e-03	1.48797202e+00	1.93103625e+05	3.00000000e+02	1.62547084e+03	6.64144989e+06	1.70424121e+00	1.79492496e-05	1.31214416e-02	1.01155408e-11	1.05678173e-01
4.81788292e-01	1.19520001e-01	6.15234417e-03	1.50586608e+00	1.94938817e+05	3.00000000e+02	1.62735282e+03	6.61953048e+06	1.71511172e+00	1.79527922e-05	1.23981313e-02	1.01283145e-11	1.00273553e-01
4.80606675e-01	1.19520001e-01	6.15234417e-03	1.52362056e+00	1.96629840e+05	3.00000000e+02	1.62853726e+03	6.58703056e+06	1.72529537e+00	1.79582573e-05	1.15848747e-02	9.78665310e-12	9.41091192e-02
4.79427695e-01	1.19520001e-01	6.15234417e-03	1.53803415e+00	1.97755615e+05	3.00000000e+02	1.62898382e+03	6.53722988e+06	1.73303100e+00	1.79649259e-05	1.07503301e-02	9.25384631e-12	8.76775933e-02
4.78251323e-01	1.19520001e-01	6.15234417e-03	1.54318896e+00	1.97687169e+05	3.00000000e+02	1.63073919e+03	6.48475585e+06	1.73599280e+00	1.79739807e-05	9.97303295e-03	8.66156637e-12	8.15973573e-02
4.77077573e-01	1.19520001e-01	6.15234417e-03	1.53099459e+00	1.95571140e+05	3.00000000e+02	1.64629031e+03	6.44509077e+06	1.73675737e+00	1.79800657e-05	9.33907324e-03	8.36979111e-12	7.66045631e-02
4.82972533e-01	1.19520001e-01	5.56640653e-03	1.43481698e+00	1.92499105e+05	3.00000000e+02	1.65427541e+03	7.23966646e+06	1.68923332e+00	1.79391932e-05	1.72102261e-02	1.27374264e-11	1.34574677e-01
4.81788292e-01	1.19520001e-01	5.56640653e-03	1.45994038e+00	1.95439581e+05	3.00000000e+02	1.63275593e+03	7.22110305e+06	1.69270933e+00	1.79405681e-05	1.65802969e-02	1.30046613e-11	1.30204486e-01
4.80606675e-01	1.19520001e-01	5.56640653e-03	1.48613876e+00	1.98247438e+05	3.00000000e+02	1.60595371e+03	7.17304325e+06	1.69350389e+00	1.79432199e-05	1.58514906e-02	1.29185256e-11	1.25057811e-01
4.79427695e-01	1.19520001e-01	5.56640653e-03	1.50908925e+00	2.00566227e+05	3.00000000e+02	1.57884320e+03	7.12221165e+06	1.69176661e+00	1.79463816e-05	1.50707170e-02	1.26928543e-11	1.19447435e-01
4.78251323e-01	1.19520001e-01	5.56640653e-03	1.52403676e+00	2.01698356e+05	3.00000000e+02	1.55158913e+03	7.05538710e+06	1.68507817e+00	1.79496679e-05	1.43041168e-02	1.22332031e-11	1.13851316e-01
4.77077573e-01	1.19520001e-01	5.56640653e-03	1.52528262e+00	2.00863383e+05	3.00000000e+02	1.53026076e+03	6.96321557e+06	1.67367639e+00	1.79546431e-05	1.36347007e-02	1.15843772e-11	1.08844318e-01
4.82972532e-01	1.19520001e-01	4.98046889e-03	1.38100505e+00	1.92242667e+05	3.00000000e+02	1.74670712e+03	7.98517093e+06	1.70355372e+00	1.79325574e-05	2.11099297e-02	1.77998207e-11	1.59766863e-01
4.81788292e-01	1.19520001e-01	4.98046889e-03	1.41310075e+00	1.96160016e+05	3.00000000e+02	1.70434770e+03	7.94540020e+06	1.70205801e+00	1.79341869e-05	2.05647042e-02	1.74488742e-11	1.56348534e-01
4.80606675e-01	1.19520001e-01	4.98046889e-03	1.44491241e+00	1.99951111e+05	3.00000000e+02	1.65823469e+03	7.90066306e+06	1.69750783e+00	1.79358663e-05	1.99304712e-02	1.70368652e-11	1.52280730e-01
4.79427695e-01	1.19520001e-01	4.98046889e-03	1.47412161e+00	2.03235366e+05	3.00000000e+02	1.60733753e+03	7.84130207e+06	1.68788749e+00	1.79377138e-05	1.92471950e-02	1.64929145e-11	1.47801583e-01
4.78251323e-01	1.19520001e-01	4.98046889e-03	1.49673752e+00	2.05407737e+05	3.00000000e+02	1.55420630e+03	7.75702829e+06	1.67222337e+00	1.79400335e-05	1.85671928e-02	1.56516839e-11	1.43246412e-01
4.77077573e-01	1.19520001e-01	4.98046889e-03	1.50643269e+00	2.05817492e+05	3.00000000e+02	1.50876175e+03	7.67091832e+06	1.65272028e+00	1.79422221e-05	1.79584879e-02	1.47802805e-11	1.39074289e-01
4.82972532e-01	1.19520001e-01	4.39453149e-03	1.32770548e+00	1.92283786e+05	3.00000000e+02	1.85230208e+03	8.82717136e+06	1.72123758e+00	1.79207568e-05	2.52909863e-02	2.86207958e-11	1.83325868e-01
4.81788293e-01	1.19520001e-01	4.39453149e-03	1.36348750e+00	1.97111025e+05	3.00000000e+02	1.80921577e+03	8.82503070e+06	1.72369549e+00	1.79225831e-05	2.47161590e-02	2.76404801e-11	1.80397761e-01
4.80606676e-01	1.19520001e-01	4.39453149e-03	1.40006483e+00	2.01780151e+05	3.00000000e+02	1.75436779e+03	8.78547446e+06	1.71973007e+00	1.79252200e-05	2.40751246e-02	2.62300433e-11	1.76909501e-01
4.79427695e-01	1.19520001e-01	4.39453148e-03	1.43498963e+00	2.05962385e+05	3.00000000e+02	1.68919219e+03	8.71122654e+06	1.70813480e+00	1.79280129e-05	2.34023393e-02	2.45018244e-11	1.73044566e-01
4.78251323e-01	1.19520001e-01	4.39453149e-03	1.46421379e+00	2.09129103e+05	3.00000000e+02	1.61870912e+03	8.61068679e+06	1.68873764e+00	1.79314271e-05	2.27414974e-02	2.25832063e-11	1.69061655e-01
4.77077573e-01	1.19520001e-01	4.39453149e-03	1.48202576e+00	2.10658160e+05	3.00000000e+02	1.55088518e+03	8.50561777e+06	1.66274283e+00	1.79342410e-05	2.21537995e-02	2.07902432e-11	1.65398427e-01
4.82972533e-01	1.19520001e-01	3.80859396e-03	1.26972117e+00	1.92474026e+05	3.00000000e+02	1.91963187e+03	9.72635713e+06	1.71648149e+00	1.78901679e-05	3.07451166e-02	5.48472365e-11	2.06684822e-01
4.81788293e-01	1.19520001e-01	3.80859396e-03	1.30964954e+00	1.98100061e+05	3.00000000e+02	1.88062092e+03	9.75843260e+06	1.72502305e+00	1.78946687e-05	2.99807240e-02	5.18307245e-11	2.04169699e-01
4.80606676e-01	1.19520001e-01	3.80859396e-03	1.35060154e+00	2.03611618e+05	3.00000000e+02	1.82912027e+03	9.74787402e+06	1.72714912e+00	1.78996814e-05	2.91525560e-02	4.79296132e-11	2.01114808e-01
4.79427695e-01	1.19520001e-01	3.80859396e-03	1.39054417e+00	2.08683757e+05	3.00000000e+02	1.76423506e+03	9.68871872e+06	1.72062655e+00	1.79050024e-05	2.83049335e-02	4.34430811e-11	1.97610552e-01
4.78251323e-01	1.19520001e-01	3.80859396e-03	1.42585453e+00	2.12805266e+05	3.00000000e+02	1.68881507e+03	9.58519616e+06	1.70414490e+00	1.79106985e-05	2.74907716e-02	3.87017794e-11	1.93844605e-01
4.77077573e-01	1.19520001e-01	3.80859396e-03	1.45143826e+00	2.15393436e+05	3.00000000e+02	1.61008494e+03	9.45950006e+06	1.67827977e+00	1.79163567e-05	2.67749018e-02	3.43481444e-11	1.90174727e-01
4.82972532e-01	1.19520001e-01	3.22265643e-03	1.19892210e+00	1.92719574e+05	3.00000000e+02	1.91204619e+03	1.05675681e+07	1.67247224e+00	1.78064006e-05	3.88540556e-02	1.22103873e-10	2.27212429e-01
4.81788293e-01	1.19520001e-01	3.22265643e-03	1.24251781e+00	1.99046737e+05	3.00000000e+02	1.88021341e+03	1.06674809e+07	1.68725004e+00	1.78182818e-05	3.77274456e-02	1.15189765e-10	2.25523948e-01
4.80606675e-01	1.19520001e-01	3.22265643e-03	1.28787805e+00	2.05334700e+05	3.00000000e+02	1.83654946e+03	1.07185477e+07	1.69653101e+00	1.78306538e-05	3.65097059e-02	1.05547340e-10	2.23413276e-01
4.79427695e-01	1.19520001e-01	3.22265643e-03	1.33294829e+00	2.11244182e+05	3.00000000e+02	1.77855450e+03	1.07101649e+07	1.69730904e+00	1.78430749e-05	3.52631047e-02	9.38603456e-11	2.20870187e-01
4.78251323e-01	1.19520001e-01	3.22265643e-03	1.37451953e+00	2.16255448e+05	3.00000000e+02	1.70634494e+03	1.06304538e+07	1.68709121e+00	1.78550345e-05	3.40642348e-02	8.11681529e-11	2.17956164e-01
4.77077573e-01	1.19520001e-01	3.22265643e-03	1.40818662e+00	2.19789854e+05	3.00000000e+02	1.62445850e+03	1.04885534e+07	1.66511789e+00	1.78661023e-05	3.30019683e-02	6.89965345e-11	2.14860394e-01
4.82972533e-01	1.19520001e-01	2.63671891e-03	1.10664571e+00	1.93047220e+05	3.00000000e+02	1.82683644e+03	1.10377823e+07	1.58692916e+00	1.76232897e-05	5.15756381e-02	2.95545726e-10	2.39064363e-01
4.81788293e-01	1.19520001e-01	2.63671891e-03	1.15271648e+00	1.99970200e+05	3.00000000e+02	1.79568663e+03	1.12326550e+07	1.60368461e+00	1.76460680e-05	4.99612669e-02	2.87937589e-10	2.38543672e-01
4.80606676e-01	1.19520001e-01	2.63671891e-03	1.20127906e+00	2.06906175e+05	3.00000000e+02	1.75335135e+03	1.13934602e+07	1.61549554e+00	1.76701832e-05	4.81702528e-02	2.70174553e-10	2.37844947e-01
4.79427695e-01	1.19520001e-01	2.63671891e-03	1.25104863e+00	2.13541244e+05	3.00000000e+02	1.69774479e+03	1.14822512e+07	1.62000349e+00	1.76948845e-05	4.62866967e-02	2.43476735e-10	2.36900770e-01
4.78251323e-01	1.19520001e-01	2.63671891e-03	1.29865126e+00	2.19334732e+05	3.00000000e+02	1.62818497e+03	1.14893661e+07	1.61410266e+00	1.77197411e-05	4.44136432e-02	2.09873351e-10	2.35679447e-01
4.77077573e-01	1.19520001e-01	2.63671891e-03	1.34028473e+00	2.23666071e+05	3.00000000e+02	1.54464377e+03	1.13813503e+07	1.59519269e+00	1.77414837e-05	4.26991069e-02	1.73335251e-10	2.34267609e-01
4.82972532e-01	1.19520001e-01	2.05078133e-03	9.90619813e-01	1.93113902e+05	3.00000000e+02	1.66671349e+03	1.06667050e+07	1.46232305e+00	1.72834739e-05	7.14834878e-02	6.17410518e-10	2.40917621e-01
4.81788293e-01	1.19520001e-01	2.05078133e-03	1.03581541e+00	2.00475383e+05	3.00000000e+02	1.63337044e+03	1.09374317e+07	1.47761411e+00	1.73146168e-05	6.94645112e-02	6.48007330e-10	2.41239288e-01
4.80606675e-01	1.19520001e-01	2.05078133e-03	1.08356667e+00	2.07902586e+05	3.00000000e+02	1.58461517e+03	1.12298329e+07	1.48531219e+00	1.73525124e-05	6.71098492e-02	6.54785503e-10	2.41516477e-01
4.79427695e-01	1.19520001e-01	2.05078133e-03	1.13406919e+00	2.15080755e+05	3.00000000e+02	1.52069108e+03	1.14426635e+07	1.48490582e+00	1.73952931e-05	6.45081049e-02	6.34413810e-10	2.41717933e-01
4.78251323e-01	1.19520001e-01	2.05078133e-03	1.18515936e+00	2.21513252e+05	3.00000000e+02	1.44307970e+03	1.15501050e+07	1.47494328e+00	1.74400850e-05	6.17565499e-02	5.85448706e-10	2.41832314e-01
4.77077574e-01	1.19520001e-01	2.05078133e-03	1.23208533e+00	2.26455657e+05	3.00000000e+02	1.35284345e+03	1.15413457e+07	1.45251670e+00	1.74828976e-05	5.90477305e-02	5.08354922e-10	2.41852619e-01
4.82972533e-01	1.19520001e-01	1.46484381e-03	8.54932167e-01	1.92966176e+05	3.00000000e+02	1.45109463e+03	9.77713780e+06	1.30835677e+00	1.67447203e-05	1.00397446e-01	7.83588612e-10	2.36036042e-01
4.81788293e-01	1.19520001e-01	1.46484381e-03	8.93239445e-01	2.00677924e+05	3.00000000e+02	1.42285207e+03	1.00229235e+07	1.32125949e+00	1.67828644e-05	9.85245924e-02	9.10406322e-10	2.36707497e-01
4.80606675e-01	1.19520001e-01	1.46484381e-03	9.36398979e-01	2.08328687e+05	3.00000000e+02	1.37954490e+03	1.01828278e+07	1.32885482e+00	1.68233018e-05	9.61873704e-02	1.02820541e-09	2.37274536e-01
4.79427695e-01	1.19520001e-01	1.46484381e-03	9.80898425e-01	2.15966337e+05	3.00000000e+02	1.31063192e+03	1.05818846e+07	1.32278116e+00	1.68598914e-05	9.34192577e-02	1.10414550e-09	2.37727632e-01
4.78251323e-01	1.19520001e-01	1.46484381e-03	1.02544187e+00	2.22748355e+05	3.00000000e+02	1.22337822e+03	1.08005622e+07	1.30169072e+00	1.69246023e-05	9.02801520e-02	1.15855328e-09	2.38073820e-01
4.77077573e-01	1.19520001e-01	1.46484381e-03	1.06898493e+00	2.27805170e+05	3.00000000e+02	1.12121864e+03	1.06761379e+07	1.26679516e+00	1.69986698e-05	8.68979452e-02	1.14371579e-09	2.38916380e-01
4.82972532e-01	1.19520001e-01	8.78906286e-04	7.28203609e-01	1.92923858e+05	3.00000000e+02	1.30048854e+03	8.20783211e+06	1.17889594e+00	1.62365812e-05	1.33407569e-01	5.75028845e-10	2.24927268e-01
4.81788293e-01	1.19520001e-01	8.78906287e-04	7.56558014e-01	2.00832831e+05	3.00000000e+02	1.27649845e+03	8.43064005e+06	1.18961775e+00	1.62485351e-05	1.32909662e-01	7.13782861e-10	2.24639862e-01
4.80606675e-01	1.19520001e-01	8.78906286e-04	7.87019744e-01	2.08837679e+05	3.00000000e+02	1.23964815e+03	8.62422279e+06	1.19431204e+00	1.62672674e-05	1.32036245e-01	8.80804986e-10	2.24523454e-01
4.79427695e-01	1.19520001e-01	8.78906286e-04	8.19182617e-01	2.16619337e+05	3.00000000e+02	1.18608910e+03	8.76194159e+06	1.18992157e+00	1.62937508e-05	1.30733442e-01	1.06605833e-09	2.24631351e-01
4.78251323e-01	1.19520001e-01	8.78906286e-04	8.51367944e-01	2.23676967e+05	3.00000000e+02	1.11722993e+03	8.83787173e+06	1.17483478e+00	1.63283958e-05	1.29015482e-01	1.26317235e-09	2.24926893e-01
4.77077574e-01	1.19520001e-01	8.78906286e-04	8.81452897e-01	2.29273249e+05	3.00000000e+02	1.03615569e+03	8.85346793e+06	1.14816710e+00	1.63718346e-05	1.26812586e-01	1.43216843e-09	2.25440059e-01
4.82972533e-01	1.19520001e-01	2.92968761e-04	6.63610660e-01	1.92859723e+05	3.00000000e+02	1.24687548e+03	6.32660857e+06	1.13534703e+00	1.57590480e-05	1.58840264e-01	2.31065086e-10	1.89214289e-01
4.81788293e-01	1.19520001e-01	2.92968761e-04	6.85386030e-01	2.00883280e+05	3.00000000e+02	1.22418778e+03	6.40315695e+06	1.14560875e+00	1.57269935e-05	1.60249824e-01	2.82754234e-10	1.80849271e-01
4.80606676e-01	1.19520001e-01	2.92968761e-04	7.07387527e-01	2.09049458e+05	3.00000000e+02	1.18950738e+03	6.44263121e+06	1.14976599e+00	1.56925383e-05	1.61740489e-01	3.43889888e-10	1.71065563e-01
4.79427695e-01	1.19520001e-01	2.92968761e-04	7.28639449e-01	2.16993030e+05	3.00000000e+02	1.14009044e+03	6.42243884e+06	1.14507275e+00	1.56560896e-05	1.63316636e-01	4.11200290e-10	1.59847757e-01
4.78251323e-01	1.19520001e-01	2.92968761e-04	7.48191395e-01	2.24162109e+05	3.00000000e+02	1.07619369e+03	6.37638213e+06	1.13002089e+00	1.56190813e-05	1.64981424e-01	4.79105857e-10	1.47240981e-01
4.77077573e-01	1.19520001e-01	2.92968761e-04	7.62401482e-01	2.29865830e+05	3.00000000e+02	1.00298172e+03	6.30663695e+06	1.10382712e+00	1.55821615e-05	1.66716951e-01	5.39088774e-10	1.33336417e-01
4.77077574e-01	1.19520001e-01	9.08203144e-03	1.43774639e+00	1.72519866e+05	3.00000000e+02	2.22684170e+03	5.44579090e+06	1.93265938e+00	1.82104586e-05	2.15023766e-04	2.90572569e-14	2.53891920e-03
4.75906431e-01	1.19520001e-01	9.08203144e-03	1.41565322e+00	1.69700742e+05	3.00000000e+02	2.25805412e+03	5.42711913e+06	1.93111648e+00	1.82107372e-05	2.03048924e-04	2.98500559e-14	2.36907233e-03
4.74737868e-01	1.19520001e-01	9.08203144e-03	1.40928113e+00	1.68967244e+05	3.00000000e+02	2.28491787e+03	5.43186891e+06	1.93820331e+00	1.82106383e-05	1.92128906e-04	3.10573642e-14	2.21434955e-03
4.73571912e-01	1.19520001e-01	9.08203143e-03	1.42046544e+00	1.70684697e+05	3.00000000e+02	2.31101498e+03	5.47670638e+06	1.95696939e+00	1.82105503e-05	1.81689148e-04	3.32960878e-14	2.06967172e-03
4.72408548e-01	1.19520001e-01	9.08203144e-03	1.45007671e+00	1.75126813e+05	3.00000000e+02	2.33878711e+03	5.57837841e+06	1.98911593e+00	1.82104687e-05	1.71290908e-04	3.73401589e-14	1.92879433e-03
4.71247747e-01	1.19520001e-01	9.08203144e-03	1.49906916e+00	1.82596701e+05	3.00000000e+02	2.36565893e+03	5.75047564e+06	2.03403304e+00	1.82103915e-05	1.60672998e-04	4.43424378e-14	1.78839337e-03
4.70089525e-01	1.19520001e-01	9.08203144e-03	1.56694952e+00	1.92997466e+05	3.00000000e+02	2.37344300e+03	5.97634015e+06	2.08300235e+00	1.82103181e-05	1.49740402e-04	5.50567121e-14	1.64695164e-03
4.77077574e-01	1.19520001e-01	8.49609403e-03	1.45201046e+00	1.74992874e+05	3.00000000e+02	2.20349815e+03	5.53013003e+06	1.93466489e+00	1.81855253e-05	5.35099420e-04	1.55047161e-13	5.38487092e-03
4.75906432e-01	1.19520001e-01	8.49609403e-03	1.42649828e+00	1.71786883e+05	3.00000000e+02	2.23628681e+03	5.51813513e+06	1.93194806e+00	1.81842049e-05	5.07371255e-04	1.57220079e-13	5.09718340e-03
4.74737868e-01	1.19520001e-01	8.49609403e-03	1.41610885e+00	1.70555967e+05	3.00000000e+02	2.26448746e+03	5.52218761e+06	1.93705946e+00	1.81836352e-05	4.90584456e-04	1.65403646e-13	4.92064361e-03
4.73571911e-01	1.19520001e-01	8.49609403e-03	1.42480377e+00	1.71939258e+05	3.00000000e+02	2.29162573e+03	5.56147854e+06	1.95455684e+00	1.81840850e-05	4.80985496e-04	1.82090969e-13	4.82135409e-03
4.72408548e-01	1.19520001e-01	8.49609403e-03	1.45390519e+00	1.76300810e+05	3.00000000e+02	2.31595003e+03	5.65833864e+06	1.98483621e+00	1.81843736e-05	4.75754238e-04	2.11318653e-13	4.76545657e-03
4.71247748e-01	1.19520001e-01	8.49609403e-03	1.50331515e+00	1.83747098e+05	3.00000000e+02	2.33162358e+03	5.81866398e+06	2.02508655e+00	1.81844861e-05	4.74175436e-04	2.59536333e-13	4.74666827e-03
4.70089525e-01	1.19520001e-01	8.49609403e-03	1.56929650e+00	1.93740910e+05	3.00000000e+02	2.32431236e+03	6.02238476e+06	2.06581804e+00	1.81843619e-05	4.77263325e-04	3.34693626e-13	4.77514235e-03
4.77077573e-01	1.19520001e-01	7.91015662e-03	1.47284932e+00	1.78812149e+05	3.00000000e+02	2.10817936e+03	5.67354761e+06	1.91146815e+00	1.81324403e-05	1.35196736e-03	6.67734575e-13	1.23919154e-02
4.75906431e-01	1.19520001e-01	7.91015662e-03	1.44404749e+00	1.74999368e+05	3.00000000e+02	2.15349215e+03	5.62314579e+06	1.91136358e+00	1.81471932e-05	1.27941468e-03	6.86873985e-13	1.18480962e-02
4.74737867e-01	1.19520001e-01	7.91015662e-03	1.42759035e+00	1.72792416e+05	3.00000000e+02	2.19327545e+03	5.59353838e+06	1.91729350e+00	1.81530739e-05	1.24914740e-03	7.43276231e-13	1.15824260e-02
4.73571911e-01	1.19520001e-01	7.91015662e-03	1.43129350e+00	1.73614159e+05	3.00000000e+02	2.22756042e+03	5.63672413e+06	1.93469290e+00	1.81533777e-05	1.24979726e-03	8.54768369e-13	1.15671995e-02
4.72408548e-01	1.19520001e-01	7.91015663e-03	1.45768104e+00	1.77748046e+05	3.00000000e+02	2.24838026e+03	5.74674743e+06	1.96200057e+00	1.81491960e-05	1.27515213e-03	1.04441214e-12	1.17575470e-02
4.71247748e-01	1.19520001e-01	7.91015663e-03	1.50648149e+00	1.85142930e+05	3.00000000e+02	2.24309813e+03	5.91700886e+06	1.99341346e+00	1.81384025e-05	1.32660729e-03	1.33617682e-12	1.21830818e-02
4.70089525e-01	1.19520001e-01	7.91015662e-03	1.56446795e+00	1.94399074e+05	3.00000000e+02	2.20767845e+03	6.14050704e+06	2.01538243e+00	1.81377813e-05	1.41128466e-03	1.81015311e-12	1.29597369e-02
4.77077573e-01	1.19520001e-01	7.32421899e-03	1.50022559e+00	1.83844926e+05	3.00000000e+02	1.98152335e+03	5.78779454e+06	1.87450534e+00	1.80917919e-05	2.99060972e-03	2.15919124e-12	2.62516419e-02
4.75906431e-01	1.19520001e-01	7.32421899e-03	1.46710014e+00	1.79443296e+05	3.00000000e+02	2.02277106e+03	5.77042543e+06	1.87358823e+00	1.80850403e-05	2.82768527e-03	2.17321126e-12	2.48245454e-02
4.74737867e-01	1.19520001e-01	7.32421898e-03	1.44245400e+00	1.76620189e+05	3.00000000e+02	2.06358812e+03	5.79449146e+06	1.87628746e+00	1.80864572e-05	2.77498569e-03	2.36106426e-12	2.43603945e-02
4.73571911e-01	1.19520001e-01	7.32421898e-03	1.43962380e+00	1.76543557e+05	3.00000000e+02	2.08945895e+03	5.82481584e+06	1.88622943e+00	1.80857824e-05	2.81269131e-03	2.73097137e-12	2.46605094e-02
4.72408548e-01	1.19520001e-01	7.32421898e-03	1.45959582e+00	1.79661450e+05	3.00000000e+02	2.10104903e+03	5.88207086e+06	1.90365436e+00	1.80940874e-05	2.92915615e-03	3.41234013e-12	2.55904817e-02
4.71247748e-01	1.19520001e-01	7.32421898e-03	1.50691832e+00	1.86270323e+05	3.00000000e+02	2.08067265e+03	5.97240328e+06	1.92601747e+00	1.80832672e-05	3.13389394e-03	4.44265559e-12	2.71643678e-02
4.70089525e-01	1.19520001e-01	7.32421899e-03	1.55927366e+00	1.94194421e+05	3.00000000e+02	2.03587910e+03	6.10735809e+06	1.93796344e+00	1.80834783e-05	3.45179420e-03	6.37406468e-12	2.98278260e-02
4.75906431e-01	1.19520001e-01	6.73828158e-03	1.48760350e+00	1.85317983e+05	3.00000000e+02	1.86274099e+03	6.05038612e+06	1.81563310e+00	1.80335872e-05	5.37715199e-03	5.02440315e-12	4.54007176e-02
4.74737867e-01	1.19520001e-01	6.73828157e-03	1.45810795e+00	1.81220804e+05	3.00000000e+02	1.90296293e+03	6.00486873e+06	1.81681966e+00	1.80338547e-05	5.29288516e-03	5.41924905e-12	4.46886668e-02
4.73571911e-01	1.19520001e-01	6.73828157e-03	1.44680823e+00	1.80128072e+05	3.00000000e+02	1.93846098e+03	6.03437300e+06	1.82653312e+00	1.80341987e-05	5.40635538e-03	6.43226178e-12	4.55479845e-02
4.72408548e-01	1.19520001e-01	6.73828158e-03	1.45546089e+00	1.82255612e+05	3.00000000e+02	1.93793857e+03	6.14775623e+06	1.83227086e+00	1.80289728e-05	5.69810120e-03	8.01043553e-12	4.78748097e-02
4.71247748e-01	1.19520001e-01	6.73828158e-03	1.48768284e+00	1.87479422e+05	3.00000000e+02	1.89687873e+03	6.26987184e+06	1.83357444e+00	1.80204984e-05	6.17850023e-03	1.04105989e-11	5.16192421e-02
4.70089525e-01	1.19520001e-01	6.73828158e-03	1.52800676e+00	1.93923618e+05	3.00000000e+02	1.81215617e+03	6.39591664e+06	1.81700864e+00	1.80133232e-05	6.89365988e-03	1.38917124e-11	5.71993313e-02
4.68933896e-01	1.19520001e-01	6.73828158e-03	1.56253227e+00	1.99494355e+05	3.00000000e+02	1.66968882e+03	6.48570386e+06	1.76486309e+00	1.80016218e-05	7.89588651e-03	1.79026382e-11	6.49920374e-02
4.75906431e-01	1.19520001e-01	6.15234417e-03	1.50307458e+00	1.91620330e+05	3.00000000e+02	1.67754927e+03	6.41326547e+06	1.73655840e+00	1.79857644e-05	8.92515319e-03	8.48528214e-12	7.32773536e-02
4.74737868e-01	1.19520001e-01	6.15234417e-03	1.46820359e+00	1.86929549e+05	3.00000000e+02	1.71723285e+03	6.38529378e+06	1.73612230e+00	1.79894466e-05	8.80199167e-03	9.09220854e-12	7.22010964e-02
4.73571911e-01	1.19520001e-01	6.15234417e-03	1.44552668e+00	1.84171464e+05	3.00000000e+02	1.74622912e+03	6.38863735e+06	1.73716511e+00	1.79892457e-05	9.00156855e-03	1.03360741e-11	7.36575246e-02
4.72408548e-01	1.19520001e-01	6.15234417e-03	1.44403605e+00	1.84766787e+05	3.00000000e+02	1.74595359e+03	6.46067347e+06	1.73637543e+00	1.79867260e-05	9.51789215e-03	1.23273176e-11	7.75423223e-02
4.71247748e-01	1.19520001e-01	6.15234417e-03	1.46113374e+00	1.88445285e+05	3.00000000e+02	1.70436355e+03	6.60677421e+06	1.72633390e+00	1.79800828e-05	1.03439023e-02	1.52885871e-11	8.37907757e-02
4.70089525e-01	1.19520001e-01	6.15234417e-03	1.48638634e+00	1.93280541e+05	3.00000000e+02	1.60891046e+03	6.74385379e+06	1.69240589e+00	1.79728788e-05	1.15054962e-02	1.85238503e-11	9.24701102e-02
4.68933896e-01	1.19520001e-01	6.15234417e-03	1.50405215e+00	1.97017979e+05	3.00000000e+02	1.46984189e+03	6.83917011e+06	1.62777524e+00	1.79664677e-05	1.30206957e-02	2.12286010e-11	1.03520515e-01
4.75906431e-01	1.19520001e-01	5.56640653e-03	1.50951477e+00	1.97846338e+05	3.00000000e+02	1.52326523e+03	6.86494960e+06	1.66086418e+00	1.79581962e-05	1.31661314e-02	1.11025298e-11	1.05263492e-01
4.74737868e-01	1.19520001e-01	5.56640653e-03	1.47613264e+00	1.93114569e+05	3.00000000e+02	1.54496247e+03	6.82306530e+06	1.65385552e+00	1.79603368e-05	1.30160277e-02	1.13821794e-11	1.04013386e-01
4.73571911e-01	1.19520001e-01	5.56640653e-03	1.44125055e+00	1.88937509e+05	3.00000000e+02	1.58327359e+03	6.85540421e+06	1.65430104e+00	1.79607128e-05	1.32756329e-02	1.25332918e-11	1.05776219e-01
4.72408548e-01	1.19520001e-01	5.56640653e-03	1.42263725e+00	1.87562686e+05	3.00000000e+02	1.60031715e+03	6.95628543e+06	1.65255781e+00	1.79590698e-05	1.39712948e-02	1.44279122e-11	1.10705804e-01
4.71247747e-01	1.19520001e-01	5.56640653e-03	1.42504117e+00	1.89321940e+05	3.00000000e+02	1.56698124e+03	7.08507650e+06	1.63685273e+00	1.79566940e-05	1.50608550e-02	1.65262638e-11	1.18365693e-01
4.70089525e-01	1.19520001e-01	5.56640653e-03	1.43594081e+00	1.92451472e+05	3.00000000e+02	1.48475093e+03	7.22110534e+06	1.59969305e+00	1.79534865e-05	1.65031802e-02	1.85112450e-11	1.28287292e-01
4.75906431e-01	1.19520001e-01	4.98046889e-03	1.49877489e+00	2.03977805e+05	3.00000000e+02	1.47766831e+03	7.58878317e+06	1.63124527e+00	1.79443530e-05	1.75207655e-02	1.40443640e-11	1.35976836e-01
4.74737868e-01	1.19520001e-01	4.98046889e-03	1.47145584e+00	1.99725975e+05	3.00000000e+02	1.47112982e+03	7.52006967e+06	1.61254787e+00	1.79463811e-05	1.73789317e-02	1.37664853e-11	1.34823194e-01
4.73571911e-01	1.19520001e-01	4.98046889e-03	1.43256384e+00	1.94474266e+05	3.00000000e+02	1.49232901e+03	7.50140997e+06	1.60239904e+00	1.79477078e-05	1.76527096e-02	1.42232053e-11	1.36470938e-01
4.72408548e-01	1.19520001e-01	4.98046889e-03	1.40023693e+00	1.90890166e+05	3.00000000e+02	1.51766953e+03	7.56111069e+06	1.59765183e+00	1.79472377e-05	1.84062135e-02	1.54578355e-11	1.41306756e-01
4.71247748e-01	1.19520001e-01	4.98046889e-03	1.38502117e+00	1.90243765e+05	3.00000000e+02	1.51102745e+03	7.68247049e+06	1.58556053e+00	1.79461767e-05	1.95918971e-02	1.71060765e-11	1.48820153e-01