VARIABLES ="X" "Y" "Z" "rho" "press" "temp" "tau_wall" "qdot" "yplus" "muLam" "ZMean" "ZVar" "CMean" 
Zone T ="wall" I = 7342 , F = point
4.93749917e-01	1.19520001e-01	9.08203144e-03	1.46851191e+00	1.62846799e+05	3.00000000e+02	2.02709489e+03	3.96714068e+06	1.86363206e+00	1.82098341e-05	1.31607483e-05	3.55914959e-16	1.18174281e-04
4.92541760e-01	1.19520001e-01	9.08203143e-03	1.50935600e+00	1.67951530e+05	3.00000000e+02	2.01679666e+03	4.02961712e+06	1.88456588e+00	1.82098328e-05	1.19276515e-05	2.90209944e-16	1.04952898e-04
4.91336287e-01	1.19520001e-01	9.08203144e-03	1.54484078e+00	1.72299637e+05	3.00000000e+02	1.99713056e+03	4.07203414e+06	1.89727176e+00	1.82098317e-05	1.07848931e-05	2.07704444e-16	9.28207623e-05
4.90133480e-01	1.19520001e-01	9.08203144e-03	1.57141443e+00	1.75463767e+05	3.00000000e+02	1.97098101e+03	4.09297655e+06	1.90095162e+00	1.82098307e-05	9.72509763e-06	1.15256691e-16	8.16845743e-05
4.88933340e-01	1.19520001e-01	9.08203144e-03	1.58566044e+00	1.77031150e+05	3.00000000e+02	1.94118483e+03	4.09064311e+06	1.89506032e+00	1.82098298e-05	8.73348339e-06	2.50291960e-17	7.13857423e-05
4.87735882e-01	1.19520001e-01	9.08203143e-03	1.58519527e+00	1.76728864e+05	3.00000000e+02	1.91024138e+03	4.06486667e+06	1.87961986e+00	1.82098290e-05	7.79841373e-06	-4.45039236e-17	6.18194991e-05
4.86541077e-01	1.19520001e-01	9.08203144e-03	1.56834359e+00	1.74405088e+05	3.00000000e+02	1.88175878e+03	4.01850197e+06	1.85561176e+00	1.82098283e-05	6.91836519e-06	-7.43773829e-17	5.30185272e-05
4.93749916e-01	1.19520001e-01	8.49609403e-03	1.45480437e+00	1.61910256e+05	3.00000000e+02	2.05782172e+03	4.02959680e+06	1.86891224e+00	1.82099037e-05	5.25851213e-05	3.06294602e-15	5.55699718e-04
4.92541761e-01	1.19520001e-01	8.49609403e-03	1.49267438e+00	1.66606666e+05	3.00000000e+02	2.04486584e+03	4.08260775e+06	1.88711250e+00	1.82098993e-05	5.08977736e-05	2.89305078e-15	5.33364872e-04
4.91336286e-01	1.19520001e-01	8.49609403e-03	1.52429268e+00	1.70482716e+05	3.00000000e+02	2.02605974e+03	4.12005263e+06	1.89820563e+00	1.82098946e-05	4.90401434e-05	2.61579937e-15	5.09213103e-04
4.90133479e-01	1.19520001e-01	8.49609403e-03	1.54660549e+00	1.73164140e+05	3.00000000e+02	2.00402471e+03	4.13992450e+06	1.90162286e+00	1.82098893e-05	4.68362611e-05	2.18877124e-15	4.81316346e-04
4.88933340e-01	1.19520001e-01	8.49609403e-03	1.55658201e+00	1.74298470e+05	3.00000000e+02	1.98247702e+03	4.14197300e+06	1.89746300e+00	1.82098829e-05	4.40405474e-05	1.57049084e-15	4.46960377e-04
4.87735882e-01	1.19520001e-01	8.49609403e-03	1.55306835e+00	1.73782304e+05	3.00000000e+02	1.96474773e+03	4.12931223e+06	1.88682707e+00	1.82098752e-05	4.04716975e-05	8.69828841e-16	4.04111108e-04
4.86541077e-01	1.19520001e-01	8.49609403e-03	1.53687494e+00	1.71724268e+05	3.00000000e+02	1.95117538e+03	4.10344101e+06	1.87047128e+00	1.82098664e-05	3.60174752e-05	3.08335974e-16	3.50861605e-04
4.93749917e-01	1.19520001e-01	7.91015663e-03	1.43577298e+00	1.60506851e+05	3.00000000e+02	2.08153956e+03	4.09682990e+06	1.86723308e+00	1.82107182e-05	1.98188306e-04	2.64606185e-14	2.37797243e-03
4.92541761e-01	1.19520001e-01	7.91015663e-03	1.46932425e+00	1.64724532e+05	3.00000000e+02	2.07073945e+03	4.14865720e+06	1.88401494e+00	1.82107401e-05	2.01716138e-04	2.69918628e-14	2.39530954e-03
4.91336286e-01	1.19520001e-01	7.91015662e-03	1.49603667e+00	1.68075300e+05	3.00000000e+02	2.05691322e+03	4.18759652e+06	1.89470578e+00	1.82107449e-05	2.03546411e-04	2.66274430e-14	2.38489037e-03
4.90133480e-01	1.19520001e-01	7.91015662e-03	1.51381192e+00	1.70276641e+05	3.00000000e+02	2.04122746e+03	4.20998775e+06	1.89865001e+00	1.82107205e-05	2.02188660e-04	2.50308519e-14	2.33118676e-03
4.88933340e-01	1.19520001e-01	7.91015662e-03	1.52051260e+00	1.71065962e+05	3.00000000e+02	2.02632992e+03	4.21463433e+06	1.89589794e+00	1.82106531e-05	1.95571176e-04	2.19011913e-14	2.21470626e-03
4.87735883e-01	1.19520001e-01	7.91015662e-03	1.51603984e+00	1.70453296e+05	3.00000000e+02	2.01560719e+03	4.20427092e+06	1.88810365e+00	1.82105393e-05	1.82246462e-04	1.74676716e-14	2.02597211e-03
4.86541077e-01	1.19520001e-01	7.91015663e-03	1.50320312e+00	1.68804818e+05	3.00000000e+02	2.00998565e+03	4.18397989e+06	1.87748462e+00	1.82103926e-05	1.62214792e-04	1.26555074e-14	1.77194827e-03
4.92541760e-01	1.19520001e-01	7.32421899e-03	1.44127609e+00	1.61814838e+05	3.00000000e+02	2.02634219e+03	4.15382081e+06	1.84826824e+00	1.81867614e-05	6.55607359e-04	1.70858713e-13	6.65713638e-03
4.91336286e-01	1.19520001e-01	7.32421899e-03	1.46201027e+00	1.64434610e+05	3.00000000e+02	2.01382763e+03	4.18448213e+06	1.85578744e+00	1.81864743e-05	6.79427370e-04	1.76383151e-13	6.84813340e-03
4.90133480e-01	1.19520001e-01	7.32421899e-03	1.47469535e+00	1.66043614e+05	3.00000000e+02	2.00326317e+03	4.20394437e+06	1.85894004e+00	1.81863339e-05	6.89405362e-04	1.73327636e-13	6.92051606e-03
4.88933340e-01	1.19520001e-01	7.32421899e-03	1.47865364e+00	1.66516052e+05	3.00000000e+02	1.99693956e+03	4.20794469e+06	1.85845587e+00	1.81866966e-05	6.77197372e-04	1.59869537e-13	6.79455812e-03
4.87735883e-01	1.19520001e-01	7.32421899e-03	1.47520517e+00	1.66038825e+05	3.00000000e+02	1.99889613e+03	4.20179349e+06	1.85713611e+00	1.81872894e-05	6.36940495e-04	1.37128254e-13	6.40317313e-03
4.86541078e-01	1.19520001e-01	7.32421899e-03	1.46809962e+00	1.65180977e+05	3.00000000e+02	2.01095011e+03	4.20274379e+06	1.85830170e+00	1.81866442e-05	5.69976504e-04	1.09239438e-13	5.74851914e-03
4.92541760e-01	1.19520001e-01	6.73828157e-03	1.40863946e+00	1.58169598e+05	3.00000000e+02	1.91347722e+03	4.10988097e+06	1.78103652e+00	1.81313079e-05	1.76886828e-03	7.40749318e-13	1.62178014e-02
4.91336286e-01	1.19520001e-01	6.73828158e-03	1.42032176e+00	1.60197703e+05	3.00000000e+02	1.89550567e+03	4.19881063e+06	1.78098653e+00	1.81211463e-05	1.85617681e-03	7.74814729e-13	1.69639918e-02
4.90133480e-01	1.19520001e-01	6.73828157e-03	1.42793583e+00	1.61245970e+05	3.00000000e+02	1.89432769e+03	4.21702082e+06	1.78520980e+00	1.81210360e-05	1.90179606e-03	7.92451682e-13	1.73179190e-02
4.88933340e-01	1.19520001e-01	6.73828158e-03	1.43078857e+00	1.61672009e+05	3.00000000e+02	1.90014571e+03	4.22939165e+06	1.78961860e+00	1.81222069e-05	1.88232060e-03	7.65884139e-13	1.71010729e-02
4.87735883e-01	1.19520001e-01	6.73828158e-03	1.43242820e+00	1.61961378e+05	3.00000000e+02	1.90973341e+03	4.23930227e+06	1.79428032e+00	1.81310475e-05	1.78526871e-03	6.88254134e-13	1.62306848e-02
4.86541078e-01	1.19520001e-01	6.73828158e-03	1.43494266e+00	1.61896857e+05	3.00000000e+02	1.94205373e+03	4.19512098e+06	1.80925404e+00	1.81484160e-05	1.61830129e-03	5.91994579e-13	1.48171017e-02
4.92541761e-01	1.19520001e-01	6.15234417e-03	1.36571586e+00	1.54617520e+05	3.00000000e+02	1.74696355e+03	4.15953327e+06	1.68311163e+00	1.80509292e-05	4.07345111e-03	2.23541736e-12	3.52409768e-02
4.91336286e-01	1.19520001e-01	6.15234417e-03	1.37168678e+00	1.55830407e+05	3.00000000e+02	1.74374674e+03	4.20783734e+06	1.68550782e+00	1.80479880e-05	4.29055157e-03	2.43021052e-12	3.70480732e-02
4.90133480e-01	1.19520001e-01	6.15234417e-03	1.37553272e+00	1.56469640e+05	3.00000000e+02	1.74966933e+03	4.22271570e+06	1.69066880e+00	1.80486738e-05	4.40224359e-03	2.54083495e-12	3.79364089e-02
4.88933340e-01	1.19520001e-01	6.15234417e-03	1.37869431e+00	1.57027947e+05	3.00000000e+02	1.76147263e+03	4.24929385e+06	1.69822258e+00	1.80496055e-05	4.36786181e-03	2.51512107e-12	3.76543106e-02
4.87735882e-01	1.19520001e-01	6.15234417e-03	1.38887706e+00	1.58148815e+05	3.00000000e+02	1.78527045e+03	4.26281267e+06	1.71607424e+00	1.80483799e-05	4.17560919e-03	2.36585687e-12	3.60805637e-02
4.86541077e-01	1.19520001e-01	6.15234417e-03	1.40562598e+00	1.60016250e+05	3.00000000e+02	1.83026909e+03	4.26824135e+06	1.74670808e+00	1.80618577e-05	3.84994583e-03	2.23979632e-12	3.34047098e-02
4.92541761e-01	1.19520001e-01	5.56640653e-03	1.30605382e+00	1.50892550e+05	3.00000000e+02	1.58750463e+03	4.30012120e+06	1.57458496e+00	1.79871486e-05	8.19412026e-03	5.16740625e-12	6.79856084e-02
4.91336287e-01	1.19520001e-01	5.56640653e-03	1.30733020e+00	1.51615166e+05	3.00000000e+02	1.59001111e+03	4.35087654e+06	1.57695962e+00	1.79830163e-05	8.60154279e-03	5.54903505e-12	7.11622863e-02
4.90133479e-01	1.19520001e-01	5.56640653e-03	1.30822955e+00	1.52259031e+05	3.00000000e+02	1.60455429e+03	4.41358120e+06	1.58501420e+00	1.79794505e-05	8.79113903e-03	5.84397359e-12	7.26792656e-02
4.88933340e-01	1.19520001e-01	5.56640653e-03	1.31505792e+00	1.53330788e+05	3.00000000e+02	1.63075912e+03	4.45702057e+06	1.60194537e+00	1.79808423e-05	8.72696721e-03	6.09005957e-12	7.21751295e-02
4.87735882e-01	1.19520001e-01	5.56640653e-03	1.33021844e+00	1.55249289e+05	3.00000000e+02	1.66212211e+03	4.49830542e+06	1.62635570e+00	1.79832339e-05	8.41699000e-03	6.24470674e-12	6.97700524e-02
4.86541077e-01	1.19520001e-01	5.56640653e-03	1.35375514e+00	1.58000404e+05	3.00000000e+02	1.69310390e+03	4.53217932e+06	1.65544926e+00	1.79881448e-05	7.90663489e-03	6.21508481e-12	6.57651990e-02
4.91336286e-01	1.19520001e-01	4.98046889e-03	1.22492498e+00	1.47968203e+05	3.00000000e+02	1.47914077e+03	4.73562015e+06	1.47483946e+00	1.79516816e-05	1.51357081e-02	1.00914791e-11	1.19353951e-01
4.90133480e-01	1.19520001e-01	4.98046889e-03	1.22718126e+00	1.48776250e+05	3.00000000e+02	1.50174781e+03	4.80225488e+06	1.48754982e+00	1.79503006e-05	1.53753176e-02	1.07963589e-11	1.21121352e-01
4.88933340e-01	1.19520001e-01	4.98046889e-03	1.23808877e+00	1.50404005e+05	3.00000000e+02	1.52870734e+03	4.86100090e+06	1.50758048e+00	1.79493177e-05	1.52775262e-02	1.15021138e-11	1.20522438e-01
4.87735882e-01	1.19520001e-01	4.98046889e-03	1.25918472e+00	1.53046322e+05	3.00000000e+02	1.55528595e+03	4.90933531e+06	1.53348302e+00	1.79498680e-05	1.48778791e-02	1.21600672e-11	1.17760317e-01
4.86541077e-01	1.19520001e-01	4.98046889e-03	1.28921653e+00	1.56582734e+05	3.00000000e+02	1.57855925e+03	4.94709159e+06	1.56309825e+00	1.79513653e-05	1.42300062e-02	1.26829393e-11	1.13174893e-01
4.91336286e-01	1.19520001e-01	4.39453149e-03	1.12943990e+00	1.44870586e+05	3.00000000e+02	1.41640940e+03	5.35386153e+06	1.38664076e+00	1.79412371e-05	2.36356615e-02	1.67741853e-11	1.71938178e-01
4.90133480e-01	1.19520001e-01	4.39453148e-03	1.13394350e+00	1.46019528e+05	3.00000000e+02	1.44147081e+03	5.43374410e+06	1.40176682e+00	1.79396201e-05	2.38901379e-02	1.80015282e-11	1.73434850e-01
4.88933340e-01	1.19520001e-01	4.39453149e-03	1.14854297e+00	1.48183884e+05	3.00000000e+02	1.46667496e+03	5.50325799e+06	1.42307413e+00	1.79392146e-05	2.37829398e-02	1.92609721e-11	1.72979666e-01
4.87735883e-01	1.19520001e-01	4.39453149e-03	1.17325350e+00	1.51407115e+05	3.00000000e+02	1.48836513e+03	5.56439434e+06	1.44886713e+00	1.79395894e-05	2.33674738e-02	2.05054189e-11	1.70870268e-01
4.86541078e-01	1.19520001e-01	4.39453149e-03	1.20670709e+00	1.55530280e+05	3.00000000e+02	1.50461004e+03	5.61353064e+06	1.47730464e+00	1.79404458e-05	2.26958490e-02	2.17040078e-11	1.67296989e-01
4.85348896e-01	1.19520001e-01	4.39453149e-03	1.24748159e+00	1.60393839e+05	3.00000000e+02	1.51461566e+03	5.65124001e+06	1.50695016e+00	1.79415429e-05	2.18084710e-02	2.28407211e-11	1.62355115e-01
4.91336287e-01	1.19520001e-01	3.80859396e-03	1.02875553e+00	1.42314246e+05	3.00000000e+02	1.38181790e+03	6.09642384e+06	1.31204125e+00	1.78741087e-05	3.36535149e-02	2.91005383e-11	2.14055895e-01
4.90133480e-01	1.19520001e-01	3.80859396e-03	1.03589038e+00	1.43873268e+05	3.00000000e+02	1.40631501e+03	6.18143401e+06	1.32839807e+00	1.78714732e-05	3.38996155e-02	3.10567077e-11	2.14779693e-01
4.88933340e-01	1.19520001e-01	3.80859396e-03	1.05294491e+00	1.46516135e+05	3.00000000e+02	1.42800348e+03	6.26369049e+06	1.34951102e+00	1.78723395e-05	3.37955852e-02	3.28921784e-11	2.14516877e-01
4.87735883e-01	1.19520001e-01	3.80859396e-03	1.07919763e+00	1.50192730e+05	3.00000000e+02	1.44467679e+03	6.34497726e+06	1.37388381e+00	1.78762417e-05	3.34028340e-02	3.46147418e-11	2.13431149e-01
4.86541078e-01	1.19520001e-01	3.80859396e-03	1.11347539e+00	1.54757400e+05	3.00000000e+02	1.45528512e+03	6.41712087e+06	1.40021726e+00	1.78817210e-05	3.27724343e-02	3.62685318e-11	2.11609754e-01
4.85348895e-01	1.19520001e-01	3.80859396e-03	1.15441110e+00	1.60026543e+05	3.00000000e+02	1.45877822e+03	6.48075177e+06	1.42684882e+00	1.78890511e-05	3.19362174e-02	3.78719803e-11	2.09009814e-01
4.91336287e-01	1.19520001e-01	3.22265644e-03	9.27514311e-01	1.40270754e+05	3.00000000e+02	1.35556705e+03	6.62837953e+06	1.24512166e+00	1.77132971e-05	4.56518307e-02	5.51652456e-11	2.35571890e-01
4.90133479e-01	1.19520001e-01	3.22265643e-03	9.37042308e-01	1.42228532e+05	3.00000000e+02	1.37758994e+03	6.71838284e+06	1.26185038e+00	1.77101445e-05	4.58544342e-02	5.80498902e-11	2.35759591e-01
4.88933340e-01	1.19520001e-01	3.22265644e-03	9.55612115e-01	1.45260134e+05	3.00000000e+02	1.39490327e+03	6.81808607e+06	1.28216481e+00	1.77116655e-05	4.57039535e-02	6.05229001e-11	2.35705747e-01
4.87735882e-01	1.19520001e-01	3.22265644e-03	9.82171133e-01	1.49263073e+05	3.00000000e+02	1.40656173e+03	6.92433534e+06	1.30491430e+00	1.77166407e-05	4.52716437e-02	6.26610170e-11	2.35449921e-01
4.86541078e-01	1.19520001e-01	3.22265643e-03	1.01584437e+00	1.54126162e+05	3.00000000e+02	1.41221219e+03	7.03418484e+06	1.32914142e+00	1.77248579e-05	4.46093955e-02	6.46282518e-11	2.34985352e-01
4.85348895e-01	1.19520001e-01	3.22265643e-03	1.05554509e+00	1.59664764e+05	3.00000000e+02	1.41053653e+03	7.13967481e+06	1.35320005e+00	1.77361332e-05	4.37479321e-02	6.63302645e-11	2.34283326e-01
4.91336287e-01	1.19520001e-01	2.63671891e-03	8.22865439e-01	1.38673668e+05	3.00000000e+02	1.31731723e+03	6.72169694e+06	1.17300694e+00	1.74581975e-05	6.14866560e-02	1.04819492e-10	2.41223471e-01
4.90133480e-01	1.19520001e-01	2.63671891e-03	8.34152241e-01	1.40977487e+05	3.00000000e+02	1.33672076e+03	6.82522589e+06	1.18989452e+00	1.74552040e-05	6.15900703e-02	1.09115774e-10	2.41279990e-01
4.88933340e-01	1.19520001e-01	2.63671891e-03	8.53374469e-01	1.44321360e+05	3.00000000e+02	1.35104513e+03	6.94537635e+06	1.20972945e+00	1.74584982e-05	6.13133749e-02	1.13166068e-10	2.41336111e-01
4.87735883e-01	1.19520001e-01	2.63671891e-03	8.79342375e-01	1.48563643e+05	3.00000000e+02	1.35926184e+03	7.08230040e+06	1.23117893e+00	1.74662540e-05	6.07353548e-02	1.16761028e-10	2.41386067e-01
4.86541078e-01	1.19520001e-01	2.63671891e-03	9.11654688e-01	1.53640639e+05	3.00000000e+02	1.36105171e+03	7.22805347e+06	1.25356878e+00	1.74781200e-05	5.99061524e-02	1.20047231e-10	2.41426872e-01
4.85348895e-01	1.19520001e-01	2.63671891e-03	9.49424954e-01	1.59342526e+05	3.00000000e+02	1.35492852e+03	7.36536054e+06	1.27524206e+00	1.74938851e-05	5.88530092e-02	1.22584763e-10	2.41448884e-01
4.92541760e-01	1.19520001e-01	2.05078133e-03	7.08424570e-01	1.35907837e+05	3.00000000e+02	1.21213824e+03	6.42376028e+06	1.06868370e+00	1.70554853e-05	8.31447407e-02	1.55112301e-10	2.39706700e-01
4.91336287e-01	1.19520001e-01	2.05078133e-03	7.13218713e-01	1.37416573e+05	3.00000000e+02	1.23220991e+03	6.47050680e+06	1.08169959e+00	1.70465867e-05	8.36835043e-02	1.59997325e-10	2.39653833e-01
4.90133479e-01	1.19520001e-01	2.05078133e-03	7.25130853e-01	1.39969220e+05	3.00000000e+02	1.25031094e+03	6.57977001e+06	1.09879215e+00	1.70448053e-05	8.36796218e-02	1.65611140e-10	2.39707312e-01
4.88933340e-01	1.19520001e-01	2.05078133e-03	7.43532626e-01	1.43515395e+05	3.00000000e+02	1.26338349e+03	6.73083099e+06	1.11817962e+00	1.70489024e-05	8.32661077e-02	1.71850108e-10	2.39824583e-01
4.87735882e-01	1.19520001e-01	2.05078133e-03	7.67540987e-01	1.47913639e+05	3.00000000e+02	1.27096651e+03	6.91465178e+06	1.13888383e+00	1.70580271e-05	8.25197023e-02	1.78558811e-10	2.39975542e-01
4.86541078e-01	1.19520001e-01	2.05078133e-03	7.96539302e-01	1.53118666e+05	3.00000000e+02	1.27317910e+03	7.13493652e+06	1.16011211e+00	1.70741377e-05	8.14795689e-02	1.86280446e-10	2.40144500e-01
4.85348895e-01	1.19520001e-01	2.05078133e-03	8.30616047e-01	1.58923237e+05	3.00000000e+02	1.26917494e+03	7.29073804e+06	1.18095533e+00	1.71008547e-05	8.01689561e-02	1.94578336e-10	2.40320653e-01
4.92541760e-01	1.19520001e-01	1.46484381e-03	6.00255590e-01	1.34603424e+05	3.00000000e+02	1.07561637e+03	5.98746611e+06	9.56720021e-01	1.65197066e-05	1.12002735e-01	1.53495679e-10	2.33030525e-01
4.91336286e-01	1.19520001e-01	1.46484381e-03	6.06187355e-01	1.36509321e+05	3.00000000e+02	1.10079662e+03	6.03585987e+06	9.72907909e-01	1.65148879e-05	1.12435033e-01	1.58840425e-10	2.32928568e-01
4.90133480e-01	1.19520001e-01	1.46484381e-03	6.16933383e-01	1.39309391e+05	3.00000000e+02	1.12564540e+03	6.16695269e+06	9.92372015e-01	1.65171766e-05	1.12398281e-01	1.68279486e-10	2.32874739e-01
4.88933340e-01	1.19520001e-01	1.46484381e-03	6.32698008e-01	1.43056270e+05	3.00000000e+02	1.14393560e+03	6.35286779e+06	1.01265241e+00	1.65245258e-05	1.11997011e-01	1.79183606e-10	2.32870588e-01
4.87735882e-01	1.19520001e-01	1.46484381e-03	6.52247921e-01	1.47506686e+05	3.00000000e+02	1.16071742e+03	6.54526863e+06	1.03465430e+00	1.65411126e-05	1.11283569e-01	1.93605176e-10	2.32931833e-01
4.86541078e-01	1.19520001e-01	1.46484381e-03	6.76645971e-01	1.52777704e+05	3.00000000e+02	1.17292241e+03	6.65523756e+06	1.05736621e+00	1.65722071e-05	1.10273170e-01	2.11056527e-10	2.33090048e-01
4.85348896e-01	1.19520001e-01	1.46484381e-03	7.04619958e-01	1.58579439e+05	3.00000000e+02	1.18116051e+03	6.71554406e+06	1.08011845e+00	1.66131095e-05	1.08970894e-01	2.32302728e-10	2.33451664e-01
4.92541761e-01	1.19520001e-01	8.78906287e-04	5.18898774e-01	1.34108646e+05	3.00000000e+02	1.02690933e+03	4.72398100e+06	8.90834628e-01	1.61176108e-05	1.40171678e-01	1.04975850e-10	2.21144385e-01
4.91336287e-01	1.19520001e-01	8.78906287e-04	5.24133007e-01	1.36005590e+05	3.00000000e+02	1.04996688e+03	4.77140962e+06	9.05681128e-01	1.61110417e-05	1.40650595e-01	1.12304497e-10	2.19810094e-01
4.90133479e-01	1.19520001e-01	8.78906286e-04	5.33530648e-01	1.38906442e+05	3.00000000e+02	1.07305358e+03	4.84291543e+06	9.23954612e-01	1.61075741e-05	1.40926649e-01	1.23217184e-10	2.18531534e-01
4.88933340e-01	1.19520001e-01	8.78906287e-04	5.46529759e-01	1.42699591e+05	3.00000000e+02	1.09433750e+03	4.94191542e+06	9.44445080e-01	1.61063163e-05	1.41034795e-01	1.38040901e-10	2.17277776e-01
4.87735882e-01	1.19520001e-01	8.78906286e-04	5.62709294e-01	1.47270700e+05	3.00000000e+02	1.11296397e+03	5.05151218e+06	9.66357647e-01	1.61077579e-05	1.40996907e-01	1.57456393e-10	2.16020964e-01
4.86541078e-01	1.19520001e-01	8.78906286e-04	5.81940533e-01	1.52587452e+05	3.00000000e+02	1.12852471e+03	5.18306628e+06	9.89323087e-01	1.61119120e-05	1.40786621e-01	1.82667004e-10	2.14766779e-01
4.85348896e-01	1.19520001e-01	8.78906287e-04	6.03656398e-01	1.58451137e+05	3.00000000e+02	1.14071064e+03	5.32219085e+06	1.01254049e+00	1.61198366e-05	1.40377226e-01	2.14575592e-10	2.13520740e-01
4.92541761e-01	1.19520001e-01	2.92968761e-04	4.75857936e-01	1.33756421e+05	3.00000000e+02	1.01186974e+03	3.80847940e+06	8.68053295e-01	1.57233455e-05	1.60076949e-01	5.59978865e-11	1.71913098e-01
4.91336287e-01	1.19520001e-01	2.92968761e-04	4.80568721e-01	1.35734489e+05	3.00000000e+02	1.03624277e+03	3.80275294e+06	8.84020193e-01	1.57013396e-05	1.60969672e-01	6.19523612e-11	1.63817647e-01
4.90133479e-01	1.19520001e-01	2.92968761e-04	4.88547035e-01	1.38695178e+05	3.00000000e+02	1.06016001e+03	3.81010473e+06	9.02826556e-01	1.56792383e-05	1.61880495e-01	6.99484891e-11	1.55307465e-01
4.88933340e-01	1.19520001e-01	2.92968761e-04	4.99638068e-01	1.42513706e+05	3.00000000e+02	1.08170941e+03	3.82519960e+06	9.23555386e-01	1.56570704e-05	1.62822858e-01	8.01204782e-11	1.46390359e-01
4.87735883e-01	1.19520001e-01	2.92968761e-04	5.12613022e-01	1.47095412e+05	3.00000000e+02	1.10150694e+03	3.98290425e+06	9.45322373e-01	1.56350360e-05	1.63807691e-01	9.30606259e-11	1.37070286e-01
4.86541078e-01	1.19520001e-01	2.92968761e-04	5.27728513e-01	1.52410924e+05	3.00000000e+02	1.11764769e+03	3.98386867e+06	9.67504289e-01	1.56133188e-05	1.64846012e-01	1.09465676e-10	1.27374716e-01
4.85348896e-01	1.19520001e-01	2.92968761e-04	5.44499952e-01	1.58268315e+05	3.00000000e+02	1.13112450e+03	3.98089463e+06	9.90014927e-01	1.55920339e-05	1.65940321e-01	1.29869976e-10	1.17317213e-01
3.84001315e-01	1.19520001e-01	6.09375024e-03	1.22842237e+00	1.18444472e+05	3.00000000e+02	7.49748358e+02	1.61214803e+06	1.03661209e+00	1.82098234e-05	-3.48264365e-72	1.52197632e-83	-4.98975515e-74
3.84001314e-01	1.19520001e-01	5.15625020e-03	1.22846661e+00	1.18448944e+05	3.00000000e+02	7.49738273e+02	1.61217507e+06	1.03662379e+00	1.82098234e-05	-8.34567645e-73	3.99467699e-84	-7.73911778e-75
3.85455906e-01	1.19520001e-01	4.21875017e-03	1.31111485e+00	1.26421972e+05	3.00000000e+02	6.85743300e+02	1.61267833e+06	1.02420244e+00	1.82098234e-05	-1.15782565e-71	6.65282559e-83	-1.06332046e-73
3.88199389e-01	1.19520001e-01	1.40625005e-03	1.49128607e+00	1.45204313e+05	3.00000000e+02	7.02366331e+02	1.76589645e+06	1.10547004e+00	1.82098234e-05	-8.05381121e-72	1.00075180e-82	1.11023560e-73
3.88199389e-01	1.19520001e-01	4.68750019e-04	1.49141001e+00	1.45215017e+05	3.00000000e+02	7.02177796e+02	1.76574809e+06	1.10536759e+00	1.82098234e-05	-7.97296320e-73	1.06571079e-83	1.63330519e-73
3.96271244e-01	1.19520001e-01	8.90625036e-03	1.37625588e+00	1.34281568e+05	3.00000000e+02	9.21525299e+02	1.79860037e+06	1.21643211e+00	1.82098234e-05	4.24228981e-49	-1.42576853e-65	2.83261169e-49
3.95249277e-01	1.19520001e-01	8.90625035e-03	1.41247270e+00	1.38356618e+05	3.00000000e+02	9.32804293e+02	1.86076067e+06	1.23985230e+00	1.82098234e-05	1.57186884e-51	-6.26121622e-68	1.04422419e-51
3.94186422e-01	1.19520001e-01	8.90625036e-03	1.45073997e+00	1.42651117e+05	3.00000000e+02	9.36633369e+02	1.92182353e+06	1.25911168e+00	1.82098234e-05	5.65890194e-54	-2.41875089e-70	3.67160644e-54
3.93081054e-01	1.19520001e-01	8.90625035e-03	1.48806310e+00	1.46796735e+05	3.00000000e+02	9.28224279e+02	1.97368661e+06	1.26946808e+00	1.82098234e-05	1.93623085e-56	-8.43646936e-73	1.17871107e-56
3.91931475e-01	1.19520001e-01	8.90625036e-03	1.51926012e+00	1.50169515e+05	3.00000000e+02	9.02818026e+02	2.00521993e+06	1.26503002e+00	1.82098234e-05	6.22056178e-59	-2.43916726e-75	3.18502959e-59
3.90735894e-01	1.19520001e-01	8.90625035e-03	1.53568102e+00	1.51794606e+05	3.00000000e+02	8.59257688e+02	2.00542979e+06	1.24078597e+00	1.82098234e-05	1.83123288e-61	8.46704582e-77	5.15237998e-62
3.89492497e-01	1.19520001e-01	8.90625035e-03	1.52304501e+00	1.50424004e+05	3.00000000e+02	8.10875552e+02	1.99247336e+06	1.20037827e+00	1.82098234e-05	4.85571711e-64	2.20844679e-77	-1.12593923e-64
3.88199389e-01	1.19520001e-01	8.90625035e-03	1.49140096e+00	1.45213829e+05	3.00000000e+02	7.02173156e+02	1.76571479e+06	1.10536058e+00	1.82098234e-05	6.53718582e-67	3.06141273e-78	-1.54215785e-66
3.86854545e-01	1.19520001e-01	8.90625036e-03	1.40553805e+00	1.36297149e+05	3.00000000e+02	6.77106121e+02	1.70153386e+06	1.05374208e+00	1.82098234e-05	-2.72610466e-68	1.42951483e-79	-6.12365102e-69
3.96271244e-01	1.19520001e-01	7.96875032e-03	1.37625867e+00	1.34282928e+05	3.00000000e+02	9.21648404e+02	1.79872852e+06	1.21651459e+00	1.82098234e-05	4.27000757e-48	-6.97988824e-65	2.86326161e-48
3.95249277e-01	1.19520001e-01	7.96875032e-03	1.41251286e+00	1.38361482e+05	3.00000000e+02	9.32889779e+02	1.86086744e+06	1.23992673e+00	1.82098234e-05	1.57752926e-50	-3.52828435e-67	1.04430842e-50
3.94186422e-01	1.19520001e-01	7.96875032e-03	1.45080838e+00	1.42658222e+05	3.00000000e+02	9.36651874e+02	1.92186587e+06	1.25915380e+00	1.82098234e-05	5.56747677e-53	-1.44400904e-69	3.57998905e-53
3.93081054e-01	1.19520001e-01	7.96875032e-03	1.48813633e+00	1.46803500e+05	3.00000000e+02	9.28174651e+02	1.97363656e+06	1.26946538e+00	1.82098234e-05	1.85866160e-55	-5.13578809e-72	1.11252852e-55
3.91931474e-01	1.19520001e-01	7.96875032e-03	1.51930525e+00	1.50172695e+05	3.00000000e+02	9.02729150e+02	2.00508313e+06	1.26498654e+00	1.82098234e-05	5.81590215e-58	-1.62242927e-74	2.87083726e-58
3.90735895e-01	1.19520001e-01	7.96875032e-03	1.53566802e+00	1.51791896e+05	3.00000000e+02	8.59198711e+02	2.00527919e+06	1.24073813e+00	1.82098234e-05	1.66746199e-60	6.71438838e-77	4.10509120e-61
3.89492497e-01	1.19520001e-01	7.96875032e-03	1.52296835e+00	1.50416324e+05	3.00000000e+02	8.10942899e+02	1.99246168e+06	1.20039790e+00	1.82098234e-05	4.33582035e-63	2.83340812e-77	-1.29945482e-63
3.88199389e-01	1.19520001e-01	7.96875032e-03	1.49129192e+00	1.45205144e+05	3.00000000e+02	7.02374467e+02	1.76592482e+06	1.10547861e+00	1.82098234e-05	9.00306054e-66	3.93586068e-78	-1.46942114e-65
3.86854544e-01	1.19520001e-01	7.96875032e-03	1.40546262e+00	1.36293575e+05	3.00000000e+02	6.77407177e+02	1.70196523e+06	1.05394803e+00	1.82098234e-05	-2.06932143e-68	1.81874954e-79	-5.37375383e-68
3.96271244e-01	1.19520001e-01	7.03125028e-03	1.37626887e+00	1.34285110e+05	3.00000000e+02	9.21772370e+02	1.79886839e+06	1.21660091e+00	1.82098234e-05	1.18310242e-47	-3.99521015e-65	7.92524164e-48
3.95249278e-01	1.19520001e-01	7.03125028e-03	1.41257088e+00	1.38368100e+05	3.00000000e+02	9.32950872e+02	1.86097469e+06	1.23999280e+00	1.82098234e-05	4.46201437e-50	-4.04590943e-67	2.93311236e-50
3.94186422e-01	1.19520001e-01	7.03125028e-03	1.45090134e+00	1.42667726e+05	3.00000000e+02	9.36635071e+02	1.92190646e+06	1.25918285e+00	1.82098234e-05	1.57767254e-52	-2.03381603e-69	9.99874989e-53
3.93081054e-01	1.19520001e-01	7.03125028e-03	1.48823346e+00	1.46812500e+05	3.00000000e+02	9.28079263e+02	1.97357311e+06	1.26944158e+00	1.82098234e-05	5.24181856e-55	-7.97101297e-72	3.04968315e-55
3.91931475e-01	1.19520001e-01	7.03125028e-03	1.51936915e+00	1.50177450e+05	3.00000000e+02	9.02586377e+02	2.00491627e+06	1.26491310e+00	1.82098234e-05	1.62757734e-57	-2.67314114e-74	7.52091446e-58
3.90735895e-01	1.19520001e-01	7.03125028e-03	1.53566413e+00	1.51789433e+05	3.00000000e+02	8.59076855e+02	2.00505957e+06	1.24064858e+00	1.82098234e-05	4.62510283e-60	1.49826807e-77	8.47271383e-61
3.89492497e-01	1.19520001e-01	7.03125028e-03	1.52289003e+00	1.50407256e+05	3.00000000e+02	8.10936844e+02	1.99231967e+06	1.20036256e+00	1.82098234e-05	1.19242445e-62	2.39086514e-77	-5.09899812e-63
3.88199389e-01	1.19520001e-01	7.03125028e-03	1.49117016e+00	1.45193574e+05	3.00000000e+02	7.02505742e+02	1.76595600e+06	1.10553677e+00	1.82098234e-05	2.56817124e-65	3.34756793e-78	-4.70435384e-65
3.86854545e-01	1.19520001e-01	7.03125028e-03	1.40538567e+00	1.36288512e+05	3.00000000e+02	6.77647916e+02	1.70224197e+06	1.05410644e+00	1.82098234e-05	1.66185894e-68	1.54634957e-79	-1.64544625e-67
3.96271244e-01	1.19520001e-01	6.09375024e-03	1.37630158e+00	1.34288978e+05	3.00000000e+02	9.21827877e+02	1.79894798e+06	1.21665200e+00	1.82098234e-05	1.78317238e-49	-1.51373361e-66	1.19029305e-49
3.95249278e-01	1.19520001e-01	6.09375024e-03	1.41264329e+00	1.38375544e+05	3.00000000e+02	9.32959016e+02	1.86101509e+06	1.24003000e+00	1.82098234e-05	8.31642002e-52	-1.05280037e-68	5.45236354e-52
3.94186422e-01	1.19520001e-01	6.09375024e-03	1.45099715e+00	1.42676678e+05	3.00000000e+02	9.36563218e+02	1.92185406e+06	1.25917612e+00	1.82098234e-05	3.50407348e-54	-5.42248272e-71	2.21222601e-54
3.93081054e-01	1.19520001e-01	6.09375024e-03	1.48832390e+00	1.46820053e+05	3.00000000e+02	9.27939076e+02	1.97342380e+06	1.26938427e+00	1.82098234e-05	1.35398528e-56	-2.35200879e-73	7.80386814e-57
3.91931475e-01	1.19520001e-01	6.09375024e-03	1.51941768e+00	1.50180219e+05	3.00000000e+02	9.02424413e+02	2.00469981e+06	1.26481980e+00	1.82098234e-05	4.80609677e-59	-7.98095561e-76	2.13811660e-59
3.90735894e-01	1.19520001e-01	6.09375024e-03	1.53564328e+00	1.51785365e+05	3.00000000e+02	8.58967078e+02	2.00484744e+06	1.24056088e+00	1.82098234e-05	1.53298573e-61	3.44023997e-77	2.11227073e-62
3.89492497e-01	1.19520001e-01	6.09375024e-03	1.52280500e+00	1.50398065e+05	3.00000000e+02	8.10960227e+02	1.99223517e+06	1.20034635e+00	1.82098234e-05	4.35197766e-64	9.04595003e-78	-2.26776356e-64
3.88199389e-01	1.19520001e-01	6.09375024e-03	1.49106380e+00	1.45184160e+05	3.00000000e+02	7.02655190e+02	1.76605835e+06	1.10561493e+00	1.82098234e-05	8.77497108e-67	1.26829806e-78	-2.03322840e-66
3.86854544e-01	1.19520001e-01	6.09375024e-03	1.40533218e+00	1.36285776e+05	3.00000000e+02	6.77869060e+02	1.70252471e+06	1.05425836e+00	1.82098234e-05	-8.77755532e-69	5.99833376e-80	-7.50299290e-69
3.85455907e-01	1.19520001e-01	6.09375024e-03	1.31109967e+00	1.26419760e+05	3.00000000e+02	6.85685878e+02	1.61258592e+06	1.02415363e+00	1.82098234e-05	-2.86987472e-70	1.37864696e-81	-1.72903602e-71
3.96271244e-01	1.19520001e-01	5.15625020e-03	1.37632997e+00	1.34292064e+05	3.00000000e+02	9.21834181e+02	1.79898521e+06	1.21666871e+00	1.82098234e-05	1.58466982e-51	-1.91760590e-68	1.05544500e-51
3.95249277e-01	1.19520001e-01	5.15625020e-03	1.41269168e+00	1.38380465e+05	3.00000000e+02	9.32955006e+02	1.86103581e+06	1.24004857e+00	1.82098234e-05	8.93359549e-54	-1.36691735e-70	5.84764295e-54
3.94186422e-01	1.19520001e-01	5.15625020e-03	1.45105790e+00	1.42682358e+05	3.00000000e+02	9.36512624e+02	1.92182125e+06	1.25916847e+00	1.82098234e-05	4.41003082e-56	-7.80170894e-73	2.77581362e-56
3.93081054e-01	1.19520001e-01	5.15625020e-03	1.48837815e+00	1.46824546e+05	3.00000000e+02	9.27849119e+02	1.97333022e+06	1.26934587e+00	1.82098234e-05	1.95487493e-58	-3.79728573e-75	1.11699526e-58
3.91931474e-01	1.19520001e-01	5.15625020e-03	1.51944366e+00	1.50181559e+05	3.00000000e+02	9.02326718e+02	2.00456866e+06	1.26476215e+00	1.82098234e-05	7.82161772e-61	1.40043186e-77	3.37402380e-61
3.90735895e-01	1.19520001e-01	5.15625020e-03	1.53562554e+00	1.51782503e+05	3.00000000e+02	8.58908510e+02	2.00473024e+06	1.24051142e+00	1.82098234e-05	2.77009465e-63	8.69442040e-78	2.96308655e-64
3.89492497e-01	1.19520001e-01	5.15625020e-03	1.52274995e+00	1.50392242e+05	3.00000000e+02	8.10980787e+02	1.99219403e+06	1.20033987e+00	1.82098234e-05	8.39960797e-66	2.10607802e-78	-5.01733106e-66
3.88199389e-01	1.19520001e-01	5.15625020e-03	1.49099755e+00	1.45178164e+05	3.00000000e+02	7.02741787e+02	1.76610786e+06	1.10565849e+00	1.82098234e-05	-1.22308921e-68	3.01748937e-79	-4.64783967e-68