VARIABLES ="X" "Y" "Z" "rho" "press" "temp" "tau_wall" "qdot" "yplus" "muLam" "ZMean" "ZVar" "CMean" 
Zone T ="wall" I = 8632 , F = point
4.07117648e-01	1.29320011e-01	1.04671078e-03	1.06946041e+00	1.12446394e+05	3.00000000e+02	2.05042353e+03	4.10138647e+06	1.21585928e+00	1.80817820e-05	-7.00179267e-52	1.91159648e-57	1.14786192e-51
4.07339645e-01	1.29320011e-01	1.06051355e-03	1.07143288e+00	1.12687268e+05	3.00000000e+02	2.04916100e+03	4.10814347e+06	1.21664339e+00	1.80817820e-05	-2.34723322e-52	8.81402901e-57	2.18512252e-51
4.07394942e-01	1.29320011e-01	1.05175195e-03	1.07228013e+00	1.12746891e+05	3.00000000e+02	2.04604376e+03	4.10194752e+06	1.21623886e+00	1.80817820e-05	1.47369874e-52	1.21602618e-56	2.51284559e-51
4.07449723e-01	1.29320011e-01	1.04011004e-03	1.07276755e+00	1.12820065e+05	3.00000000e+02	2.05065737e+03	4.10688217e+06	1.21775793e+00	1.80817820e-05	6.55529336e-52	1.64883571e-56	2.90090453e-51
4.07503823e-01	1.29320011e-01	1.02561558e-03	1.07314201e+00	1.12899299e+05	3.00000000e+02	2.05196768e+03	4.11478912e+06	1.21844133e+00	1.80817820e-05	1.29189089e-51	2.18808671e-56	3.35413185e-51
4.07172545e-01	1.29320011e-01	1.04958748e-03	1.07034032e+00	1.12505055e+05	3.00000000e+02	2.04126549e+03	4.09407797e+06	1.21374046e+00	1.80817820e-05	-6.89357942e-52	2.69460101e-57	1.30009294e-51
4.07227509e-01	1.29320011e-01	1.04958665e-03	1.07115355e+00	1.12544827e+05	3.00000000e+02	2.03952080e+03	4.08467674e+06	1.21368251e+00	1.80817820e-05	-6.25113404e-52	3.80663792e-57	1.46881430e-51
4.07282393e-01	1.29320011e-01	1.04671158e-03	1.07105246e+00	1.12607774e+05	3.00000000e+02	2.04872989e+03	4.10014956e+06	1.21626132e+00	1.80817820e-05	-4.92726039e-52	5.36689182e-57	1.66230046e-51
4.07337065e-01	1.29320011e-01	1.04096437e-03	1.07143946e+00	1.12683394e+05	3.00000000e+02	2.04824740e+03	4.10718219e+06	1.21638251e+00	1.80817820e-05	-2.78332950e-52	7.45197441e-57	1.88747149e-51
4.07391361e-01	1.29320011e-01	1.03236625e-03	1.07222843e+00	1.12739502e+05	3.00000000e+02	2.04878082e+03	4.10140569e+06	1.21706447e+00	1.80817820e-05	3.03265653e-53	1.02142155e-56	2.15185811e-51
4.07445132e-01	1.29320011e-01	1.02093720e-03	1.07232794e+00	1.12815945e+05	3.00000000e+02	2.05545607e+03	4.11535579e+06	1.21898543e+00	1.80817820e-05	4.39355038e-52	1.37348635e-56	2.46047886e-51
4.07498227e-01	1.29320011e-01	1.00671041e-03	1.07306725e+00	1.12896576e+05	3.00000000e+02	2.04945032e+03	4.11545868e+06	1.21776553e+00	1.80817820e-05	9.50738754e-52	1.80645873e-56	2.81880190e-51
4.07550493e-01	1.29320011e-01	9.89724060e-04	1.07420833e+00	1.12953223e+05	3.00000000e+02	2.04413336e+03	4.10282406e+06	1.21672174e+00	1.80817820e-05	1.56557047e-51	2.33695048e-56	3.23473446e-51
4.07070588e-01	1.29320011e-01	9.83149474e-04	1.06924953e+00	1.12391406e+05	3.00000000e+02	2.04731505e+03	4.09448628e+06	1.21485844e+00	1.80817820e-05	-4.98831896e-52	9.34337044e-58	6.93781516e-52
4.07068046e-01	1.29320011e-01	1.00242216e-03	1.06925096e+00	1.12387683e+05	3.00000000e+02	2.04670364e+03	4.09368507e+06	1.21467884e+00	1.80817820e-05	-5.51830450e-52	1.06143884e-57	7.86655823e-52
4.07119168e-01	1.29320011e-01	1.02733250e-03	1.06968507e+00	1.12444029e+05	3.00000000e+02	2.04711630e+03	4.09589087e+06	1.21504825e+00	1.80817820e-05	-6.37801350e-52	1.67464051e-57	1.01280836e-51
4.07122214e-01	1.29320011e-01	9.88576858e-04	1.06971680e+00	1.12444260e+05	3.00000000e+02	2.04686782e+03	4.09525525e+06	1.21499143e+00	1.80817820e-05	-5.25656091e-52	1.27937966e-57	7.84820133e-52
4.07120695e-01	1.29320011e-01	1.00795336e-03	1.06971058e+00	1.12444044e+05	3.00000000e+02	2.04681374e+03	4.09533898e+06	1.21497381e+00	1.80817820e-05	-5.79869193e-52	1.46552726e-57	8.92601390e-52
4.07174072e-01	1.29320011e-01	9.91292022e-04	1.07016276e+00	1.12499515e+05	3.00000000e+02	2.04713064e+03	4.09697598e+06	1.21532392e+00	1.80817820e-05	-5.28830980e-52	1.76170375e-57	8.79739843e-52
4.07173565e-01	1.29320011e-01	1.01072533e-03	1.07016765e+00	1.12500052e+05	3.00000000e+02	2.04719019e+03	4.09697823e+06	1.21534509e+00	1.80817820e-05	-5.79783352e-52	2.03505803e-57	1.00421632e-51
4.07173051e-01	1.29320011e-01	1.03015593e-03	1.07017872e+00	1.12499769e+05	3.00000000e+02	2.04715852e+03	4.09669096e+06	1.21533887e+00	1.80817820e-05	-6.33109888e-52	2.34505054e-57	1.14339654e-51
4.07225982e-01	1.29320011e-01	9.91292948e-04	1.07058109e+00	1.12552181e+05	3.00000000e+02	2.04754770e+03	4.09876448e+06	1.21568525e+00	1.80817820e-05	-5.00211976e-52	2.42017903e-57	9.78392166e-52
4.07226496e-01	1.29320011e-01	1.01072535e-03	1.07057194e+00	1.12551336e+05	3.00000000e+02	2.04764308e+03	4.09878584e+06	1.21570909e+00	1.80817820e-05	-5.42447934e-52	2.82498043e-57	1.12441747e-51
4.07227010e-01	1.29320011e-01	1.03015595e-03	1.07056691e+00	1.12549625e+05	3.00000000e+02	2.04756663e+03	4.09855297e+06	1.21568043e+00	1.80817820e-05	-5.83877026e-52	3.28486463e-57	1.28611205e-51
4.07277817e-01	1.29320011e-01	9.88575110e-04	1.07102763e+00	1.12608055e+05	3.00000000e+02	2.04775774e+03	4.10060510e+06	1.21599988e+00	1.80817820e-05	-4.32736736e-52	3.30251698e-57	1.08359530e-51
4.07279345e-01	1.29320011e-01	1.00795427e-03	1.07103010e+00	1.12608510e+05	3.00000000e+02	2.04780126e+03	4.10063888e+06	1.21601617e+00	1.80817820e-05	-4.58210023e-52	3.90010794e-57	1.25707802e-51
4.07280880e-01	1.29320011e-01	1.02733248e-03	1.07104230e+00	1.12609221e+05	3.00000000e+02	2.04770691e+03	4.10052403e+06	1.21599422e+00	1.80817820e-05	-4.78233318e-52	4.57784456e-57	1.44726211e-51
4.07329452e-01	1.29320011e-01	9.83150273e-04	1.07152520e+00	1.12669430e+05	3.00000000e+02	2.04794337e+03	4.10246919e+06	1.21633714e+00	1.80817820e-05	-3.21041942e-52	4.46456525e-57	1.20138220e-51
4.07331984e-01	1.29320011e-01	1.00242056e-03	1.07154917e+00	1.12673056e+05	3.00000000e+02	2.04798355e+03	4.10269306e+06	1.21636369e+00	1.80817820e-05	-3.18646966e-52	5.32459587e-57	1.40566623e-51
4.07334534e-01	1.29320011e-01	1.02169402e-03	1.07155320e+00	1.12676025e+05	3.00000000e+02	2.04847940e+03	4.10321009e+06	1.21651510e+00	1.80817820e-05	-3.04959163e-52	6.31057680e-57	1.63175640e-51
4.07380730e-01	1.29320011e-01	9.75028935e-04	1.07201884e+00	1.12731581e+05	3.00000000e+02	2.04821431e+03	4.10457365e+06	1.21669811e+00	1.80817820e-05	-1.59877971e-52	5.96849995e-57	1.33836180e-51
4.07384274e-01	1.29320011e-01	9.94140235e-04	1.07205451e+00	1.12735390e+05	3.00000000e+02	2.04818884e+03	4.10459129e+06	1.21670910e+00	1.80817820e-05	-1.17406712e-52	7.16892981e-57	1.57544338e-51
4.07387820e-01	1.29320011e-01	1.01325296e-03	1.07196839e+00	1.12737576e+05	3.00000000e+02	2.05171149e+03	4.10690742e+06	1.21770446e+00	1.80817820e-05	-5.54207691e-53	8.57670505e-57	1.84452307e-51
4.07431518e-01	1.29320011e-01	9.64233502e-04	1.07256940e+00	1.12798951e+05	3.00000000e+02	2.04825566e+03	4.10652120e+06	1.21702246e+00	1.80817820e-05	5.53782245e-53	7.87678629e-57	1.50041572e-51
4.07436066e-01	1.29320011e-01	9.83135551e-04	1.07264212e+00	1.12806095e+05	3.00000000e+02	2.04784452e+03	4.10641572e+06	1.21694217e+00	1.80817820e-05	1.49828923e-52	9.50103496e-57	1.77290234e-51
4.07440602e-01	1.29320011e-01	1.00203611e-03	1.07246592e+00	1.12815278e+05	3.00000000e+02	2.05063967e+03	4.11242090e+06	1.21758007e+00	1.80817820e-05	2.75222383e-52	1.14198268e-56	2.09087645e-51
4.07481658e-01	1.29320011e-01	9.50797484e-04	1.07314099e+00	1.12868864e+05	3.00000000e+02	2.04845790e+03	4.10853248e+06	1.21740706e+00	1.80817820e-05	3.27870643e-52	1.02543091e-56	1.69203209e-51
4.07487186e-01	1.29320011e-01	9.69435099e-04	1.07331359e+00	1.12879483e+05	3.00000000e+02	2.04529275e+03	4.10697799e+06	1.21656625e+00	1.80817820e-05	4.85433322e-52	1.23884690e-56	2.00432169e-51
4.07492714e-01	1.29320011e-01	9.88072706e-04	1.07351730e+00	1.12887679e+05	3.00000000e+02	2.04311332e+03	4.10422153e+06	1.21604558e+00	1.80817820e-05	6.89596059e-52	1.49491411e-56	2.37752004e-51
4.07531023e-01	1.29320011e-01	9.34754530e-04	1.07364846e+00	1.12931440e+05	3.00000000e+02	2.04884691e+03	4.11042016e+06	1.21781069e+00	1.80817820e-05	6.60735537e-52	1.31949174e-56	1.91818845e-51
4.07537515e-01	1.29320011e-01	9.53077744e-04	1.07391491e+00	1.12934785e+05	3.00000000e+02	2.04690589e+03	4.10500185e+06	1.21748988e+00	1.80817820e-05	8.92558436e-52	1.59781904e-56	2.27725472e-51
4.07544012e-01	1.29320011e-01	9.71400863e-04	1.07417226e+00	1.12944598e+05	3.00000000e+02	2.04278251e+03	4.10182966e+06	1.21630015e+00	1.80817820e-05	1.18929959e-51	1.93069821e-56	2.71233215e-51
4.07124023e-01	1.29320011e-01	9.63623660e-04	1.06970819e+00	1.12445463e+05	3.00000000e+02	2.04721543e+03	4.09568406e+06	1.21509133e+00	1.80817820e-05	-4.54997701e-52	1.06002003e-57	6.51845070e-52
4.07175372e-01	1.29320011e-01	9.35498612e-04	1.07014916e+00	1.12499372e+05	3.00000000e+02	2.04728195e+03	4.09724202e+06	1.21536076e+00	1.80817820e-05	-3.99529461e-52	1.16706983e-57	5.97783611e-52
4.07174672e-01	1.29320011e-01	9.66242932e-04	1.07015555e+00	1.12499237e+05	3.00000000e+02	2.04721653e+03	4.09707511e+06	1.21534517e+00	1.80817820e-05	-4.61733990e-52	1.44868177e-57	7.29052758e-52
4.07223996e-01	1.29320011e-01	9.04752750e-04	1.07057313e+00	1.12551253e+05	3.00000000e+02	2.04739997e+03	4.09874592e+06	1.21563674e+00	1.80817820e-05	-3.39848853e-52	1.24891507e-57	5.38303906e-52
4.07224689e-01	1.29320011e-01	9.35498655e-04	1.07057592e+00	1.12552140e+05	3.00000000e+02	2.04751650e+03	4.09886895e+06	1.21567271e+00	1.80817820e-05	-3.89924972e-52	1.57525226e-57	6.61857596e-52
4.07225382e-01	1.29320011e-01	9.66241529e-04	1.07058335e+00	1.12552408e+05	3.00000000e+02	2.04750977e+03	4.09876270e+06	1.21567512e+00	1.80817820e-05	-4.44537984e-52	1.98320974e-57	8.12142434e-52
4.07269781e-01	1.29320011e-01	8.71818428e-04	1.07098113e+00	1.12601536e+05	3.00000000e+02	2.04753644e+03	4.10026497e+06	1.21590925e+00	1.80817820e-05	-2.80976491e-52	1.30297328e-57	4.77799713e-52
4.07271860e-01	1.29320011e-01	9.02421572e-04	1.07099696e+00	1.12603981e+05	3.00000000e+02	2.04763385e+03	4.10042598e+06	1.21594698e+00	1.80817820e-05	-3.18784342e-52	1.66641902e-57	5.92503950e-52
4.07273930e-01	1.29320011e-01	9.33020300e-04	1.07100940e+00	1.12605948e+05	3.00000000e+02	2.04775870e+03	4.10056176e+06	1.21599108e+00	1.80817820e-05	-3.57788378e-52	2.12562682e-57	7.32659180e-52
4.07276010e-01	1.29320011e-01	9.63626572e-04	1.07102137e+00	1.12607218e+05	3.00000000e+02	2.04778291e+03	4.10056291e+06	1.21600543e+00	1.80817820e-05	-3.97124249e-52	2.70750038e-57	9.04770894e-52
4.07316110e-01	1.29320011e-01	8.67443311e-04	1.07142691e+00	1.12656328e+05	3.00000000e+02	2.04767138e+03	4.10189368e+06	1.21620255e+00	1.80817820e-05	-2.52609456e-52	1.71690064e-57	5.23492229e-52
4.07319551e-01	1.29320011e-01	8.97760137e-04	1.07144646e+00	1.12659451e+05	3.00000000e+02	2.04780101e+03	4.10211322e+06	1.21625208e+00	1.80817820e-05	-2.77307888e-52	2.21620205e-57	6.52948984e-52
4.07322987e-01	1.29320011e-01	9.28078389e-04	1.07146811e+00	1.12662785e+05	3.00000000e+02	2.04792857e+03	4.10233144e+06	1.21630205e+00	1.80817820e-05	-2.98311601e-52	2.85375453e-57	8.12511471e-52
4.07326435e-01	1.29320011e-01	9.58393876e-04	1.07149511e+00	1.12666171e+05	3.00000000e+02	2.04797487e+03	4.10244259e+06	1.21633154e+00	1.80817820e-05	-3.13173969e-52	3.66695356e-57	1.00986691e-51
4.07362170e-01	1.29320011e-01	8.60898671e-04	1.07188288e+00	1.12713059e+05	3.00000000e+02	2.04794403e+03	4.10369934e+06	1.21654247e+00	1.80817820e-05	-2.06496643e-52	2.25243787e-57	5.74873232e-52
4.07366954e-01	1.29320011e-01	8.90791134e-04	1.07191652e+00	1.12717613e+05	3.00000000e+02	2.04799905e+03	4.10390805e+06	1.21657794e+00	1.80817820e-05	-2.12029806e-52	2.92901095e-57	7.21622807e-52
4.07371744e-01	1.29320011e-01	9.20679528e-04	1.07195253e+00	1.12722381e+05	3.00000000e+02	2.04808801e+03	4.10411056e+06	1.21662459e+00	1.80817820e-05	-2.06998154e-52	3.79973830e-57	9.04112832e-52
4.07376525e-01	1.29320011e-01	9.50566868e-04	1.07199041e+00	1.12727269e+05	3.00000000e+02	2.04814168e+03	4.10429597e+06	1.21666216e+00	1.80817820e-05	-1.87036404e-52	4.91219227e-57	1.13092076e-51
4.07407860e-01	1.29320011e-01	8.52206976e-04	1.07232957e+00	1.12768852e+05	3.00000000e+02	2.04826463e+03	4.10551172e+06	1.21689122e+00	1.80817820e-05	-1.40190344e-52	2.93886734e-57	6.33731852e-52
4.07413958e-01	1.29320011e-01	8.81524233e-04	1.07239221e+00	1.12776364e+05	3.00000000e+02	2.04822763e+03	4.10570201e+06	1.21691571e+00	1.80817820e-05	-1.19933262e-52	3.84005662e-57	8.00701738e-52
4.07420061e-01	1.29320011e-01	9.10846835e-04	1.07245052e+00	1.12783835e+05	3.00000000e+02	2.04824970e+03	4.10597764e+06	1.21695519e+00	1.80817820e-05	-8.02750469e-53	5.00501935e-57	1.00998924e-51
4.07426157e-01	1.29320011e-01	9.40170654e-04	1.07251389e+00	1.12791580e+05	3.00000000e+02	2.04824919e+03	4.10619712e+06	1.21699175e+00	1.80817820e-05	-1.42866639e-53	6.49603622e-57	1.27143416e-51
4.07453083e-01	1.29320011e-01	8.41386838e-04	1.07279360e+00	1.12826565e+05	3.00000000e+02	2.04847937e+03	4.10734256e+06	1.21721835e+00	1.80817820e-05	-5.13934576e-53	3.81337046e-57	7.02095588e-52
4.07460450e-01	1.29320011e-01	8.69997586e-04	1.07287762e+00	1.12836581e+05	3.00000000e+02	2.04844432e+03	4.10758388e+06	1.21725582e+00	1.80817820e-05	1.48549105e-54	4.99175712e-57	8.92492488e-52
4.07467805e-01	1.29320011e-01	8.98610921e-04	1.07296454e+00	1.12846999e+05	3.00000000e+02	2.04841967e+03	4.10784817e+06	1.21729719e+00	1.80817820e-05	8.47963051e-53	6.52073358e-57	1.13306125e-51
4.07475162e-01	1.29320011e-01	9.27221092e-04	1.07305575e+00	1.12858199e+05	3.00000000e+02	2.04843283e+03	4.10817438e+06	1.21735399e+00	1.80817820e-05	2.07944791e-52	8.47530554e-57	1.43464245e-51
4.07506302e-01	1.29320011e-01	8.56241056e-04	1.07337672e+00	1.12898522e+05	3.00000000e+02	2.04868603e+03	4.10952475e+06	1.21761046e+00	1.80817820e-05	1.54567120e-52	6.44323402e-57	9.99826989e-52
4.07514870e-01	1.29320011e-01	8.84004352e-04	1.07347427e+00	1.12910425e+05	3.00000000e+02	2.04872463e+03	4.10986093e+06	1.21767748e+00	1.80817820e-05	2.90314698e-52	8.41204001e-57	1.27631830e-51
4.07523447e-01	1.29320011e-01	9.11768477e-04	1.07356861e+00	1.12921917e+05	3.00000000e+02	2.04881024e+03	4.11018235e+06	1.21775665e+00	1.80817820e-05	4.81727144e-52	1.09270802e-56	1.62426464e-51
4.07497731e-01	1.29320011e-01	8.28475779e-04	1.07328021e+00	1.12886767e+05	3.00000000e+02	2.04868655e+03	4.10919559e+06	1.21755581e+00	1.80817820e-05	6.22971891e-53	4.92990851e-57	7.82562800e-52
4.07579510e-01	1.29320011e-01	9.16149700e-04	1.07417381e+00	1.12996536e+05	3.00000000e+02	2.04907221e+03	4.11243317e+06	1.21817702e+00	1.80817820e-05	1.05490467e-51	1.68092745e-56	2.18256526e-51
4.07586935e-01	1.29320011e-01	9.34108276e-04	1.07405340e+00	1.13004472e+05	3.00000000e+02	2.05228609e+03	4.11663963e+06	1.21906961e+00	1.80817820e-05	1.37049909e-51	2.03520596e-56	2.59601352e-51
4.07594381e-01	1.29320011e-01	9.52066456e-04	1.07442642e+00	1.13012880e+05	3.00000000e+02	2.05079218e+03	4.11072073e+06	1.21871722e+00	1.80817820e-05	1.77281156e-51	2.46599775e-56	3.10154939e-51
4.07551420e-01	1.29320011e-01	8.40292847e-04	1.07387681e+00	1.12960845e+05	3.00000000e+02	2.04899648e+03	4.11152128e+06	1.21798584e+00	1.80817820e-05	3.42462302e-52	8.28930037e-57	1.12698996e-51
4.07561136e-01	1.29320011e-01	8.67069052e-04	1.07398299e+00	1.12974041e+05	3.00000000e+02	2.04906357e+03	4.11193439e+06	1.21806684e+00	1.80817820e-05	5.38594956e-52	1.07770273e-56	1.44388113e-51
4.07570866e-01	1.29320011e-01	8.93845365e-04	1.07408423e+00	1.12986451e+05	3.00000000e+02	2.04913074e+03	4.11229640e+06	1.21814391e+00	1.80817820e-05	8.07855019e-52	1.39497994e-56	1.84386640e-51
4.07595709e-01	1.29320011e-01	8.22202567e-04	1.07438111e+00	1.13023889e+05	3.00000000e+02	2.04930569e+03	4.11357279e+06	1.21836328e+00	1.80817820e-05	5.70258720e-52	1.06854128e-56	1.28075088e-51
4.07606493e-01	1.29320011e-01	8.47854093e-04	1.07450672e+00	1.13039341e+05	3.00000000e+02	2.04932850e+03	4.11403014e+06	1.21844184e+00	1.80817820e-05	8.33648916e-52	1.37773674e-56	1.64235324e-51
4.07617272e-01	1.29320011e-01	8.73506459e-04	1.07463659e+00	1.13054989e+05	3.00000000e+02	2.04929519e+03	4.11443696e+06	1.21850559e+00	1.80817820e-05	1.18854904e-51	1.77077614e-56	2.09948581e-51
4.07601816e-01	1.29320011e-01	9.70024847e-04	1.07443685e+00	1.13029559e+05	3.00000000e+02	2.04911684e+03	4.11355425e+06	1.21833257e+00	1.80817820e-05	2.28074891e-51	2.99023930e-56	3.71519959e-51
4.07652037e-01	1.29320011e-01	9.47666443e-04	1.07496425e+00	1.13111660e+05	3.00000000e+02	2.05069585e+03	4.11893885e+06	1.21912211e+00	1.80817820e-05	3.09331678e-51	3.77134669e-56	4.26813993e-51
4.07701015e-01	1.29320011e-01	9.22711890e-04	1.07570251e+00	1.13186953e+05	3.00000000e+02	2.04987761e+03	4.11851075e+06	1.21927917e+00	1.80817820e-05	4.01289779e-51	4.72596251e-56	4.91289737e-51
4.07626929e-01	1.29320011e-01	8.95033247e-04	1.07475942e+00	1.13069401e+05	3.00000000e+02	2.04920862e+03	4.11473537e+06	1.21855158e+00	1.80817820e-05	1.51321856e-51	2.12793719e-56	2.49182979e-51
4.07635293e-01	1.29320011e-01	9.12578162e-04	1.07470808e+00	1.13084249e+05	3.00000000e+02	2.05136644e+03	4.11888254e+06	1.21916513e+00	1.80817820e-05	1.92224413e-51	2.56756734e-56	2.96869545e-51
4.07643657e-01	1.29320011e-01	9.30123137e-04	1.07460662e+00	1.13099209e+05	3.00000000e+02	2.05381744e+03	4.12411681e+06	1.21984224e+00	1.80817820e-05	2.44015691e-51	3.11020167e-56	3.55313996e-51
4.07673180e-01	1.29320011e-01	8.71464667e-04	1.07535915e+00	1.13143049e+05	3.00000000e+02	2.04934766e+03	4.11689591e+06	1.21893343e+00	1.80817820e-05	2.04458520e-51	2.69409091e-56	2.85954427e-51
4.07682453e-01	1.29320011e-01	8.88547895e-04	1.07547226e+00	1.13158455e+05	3.00000000e+02	2.04963547e+03	4.11762352e+06	1.21908033e+00	1.80817820e-05	2.55760003e-51	3.23570545e-56	3.41041040e-51
4.07691728e-01	1.29320011e-01	9.05628545e-04	1.07556966e+00	1.13173477e+05	3.00000000e+02	2.05020521e+03	4.11861009e+06	1.21930244e+00	1.80817820e-05	3.20241369e-51	3.90287197e-56	4.08501803e-51
4.07718146e-01	1.29320011e-01	8.45506983e-04	1.07602602e+00	1.13219940e+05	3.00000000e+02	2.04851765e+03	4.11826996e+06	1.21906539e+00	1.80817820e-05	2.66985746e-51	3.43726211e-56	3.31188493e-51
4.07728304e-01	1.29320011e-01	8.62079364e-04	1.07615249e+00	1.13235447e+05	3.00000000e+02	2.04880361e+03	4.11872691e+06	1.21922016e+00	1.80817820e-05	3.29948932e-51	4.10490497e-56	3.94998550e-51
4.07639035e-01	1.29320011e-01	8.02018856e-04	1.07489806e+00	1.13088403e+05	3.00000000e+02	2.04958093e+03	4.11564888e+06	1.21873844e+00	1.80817820e-05	8.48885020e-52	1.39103118e-56	1.47412290e-51
4.07650807e-01	1.29320011e-01	8.26413534e-04	1.07504959e+00	1.13106627e+05	3.00000000e+02	2.04952849e+03	4.11611806e+06	1.21880834e+00	1.80817820e-05	1.18488108e-51	1.77009023e-56	1.88430889e-51
4.07662569e-01	1.29320011e-01	8.50808365e-04	1.07520935e+00	1.13125546e+05	3.00000000e+02	2.04941213e+03	4.11655051e+06	1.21886424e+00	1.80817820e-05	1.63208476e-51	2.25083712e-56	2.40387069e-51
4.07681323e-01	1.29320011e-01	7.79802423e-04	1.07542702e+00	1.13154522e+05	3.00000000e+02	2.04982224e+03	4.11779635e+06	1.21910919e+00	1.80817820e-05	1.20038098e-51	1.84525814e-56	1.73143790e-51
4.07693973e-01	1.29320011e-01	8.02807409e-04	1.07561009e+00	1.13175985e+05	3.00000000e+02	2.04966677e+03	4.11824735e+06	1.21916667e+00	1.80817820e-05	1.61450795e-51	2.30728535e-56	2.19531470e-51
4.07706625e-01	1.29320011e-01	8.25812433e-04	1.07582036e+00	1.13199004e+05	3.00000000e+02	2.04913081e+03	4.11843053e+06	1.21912639e+00	1.80817820e-05	2.15930273e-51	2.88984015e-56	2.78262038e-51
4.07541715e-01	1.29320011e-01	8.13517571e-04	1.07376740e+00	1.12947394e+05	3.00000000e+02	2.04896603e+03	4.11112255e+06	1.21791482e+00	1.80817820e-05	2.04271299e-52	6.37653940e-57	8.79190431e-52
4.07584917e-01	1.29320011e-01	7.96548856e-04	1.07425619e+00	1.13008394e+05	3.00000000e+02	2.04926918e+03	4.11308891e+06	1.21828198e+00	1.80817820e-05	3.80369734e-52	8.30275413e-57	9.98862527e-52
4.06968529e-01	1.29320011e-01	9.64233511e-04	1.06828909e+00	1.12286870e+05	3.00000000e+02	2.04972118e+03	4.09381622e+06	1.21500568e+00	1.80817820e-05	-4.03021117e-52	5.19066861e-58	5.21965833e-52
4.06963995e-01	1.29320011e-01	9.83135577e-04	1.06841032e+00	1.12285415e+05	3.00000000e+02	2.04670871e+03	4.09081788e+06	1.21420239e+00	1.80817820e-05	-4.45843114e-52	5.80210864e-58	5.88681939e-52
4.07019311e-01	1.29320011e-01	9.75028245e-04	1.06863342e+00	1.12341881e+05	3.00000000e+02	2.04977388e+03	4.09762665e+06	1.21523782e+00	1.80817820e-05	-4.55736886e-52	6.91181121e-58	6.06142179e-52
4.07015767e-01	1.29320011e-01	9.94139580e-04	1.06882894e+00	1.12335930e+05	3.00000000e+02	2.04659411e+03	4.09216838e+06	1.21440427e+00	1.80817820e-05	-5.04503846e-52	7.78254227e-58	6.85384066e-52
4.06954303e-01	1.29320011e-01	8.12773581e-04	1.06823843e+00	1.12273892e+05	3.00000000e+02	2.04918271e+03	4.09229749e+06	1.21479960e+00	1.80817820e-05	-1.61629469e-52	1.75711959e-58	1.80729892e-52
4.06946949e-01	1.29320011e-01	8.41386820e-04	1.06830505e+00	1.12270732e+05	3.00000000e+02	2.04656992e+03	4.09006580e+06	1.21410302e+00	1.80817820e-05	-1.89602568e-52	2.07989020e-58	2.17849529e-52
4.06939591e-01	1.29320011e-01	8.69996448e-04	1.06826653e+00	1.12265180e+05	3.00000000e+02	2.04641723e+03	4.08975499e+06	1.21403606e+00	1.80817820e-05	-2.21579918e-52	2.45574908e-58	2.61497830e-52
4.06932218e-01	1.29320011e-01	8.98612040e-04	1.06823950e+00	1.12257857e+05	3.00000000e+02	2.04585556e+03	4.08883253e+06	1.21385348e+00	1.80817820e-05	-2.58037192e-52	2.88867260e-58	3.12678618e-52
4.07004369e-01	1.29320011e-01	7.93563599e-04	1.06844439e+00	1.12330881e+05	3.00000000e+02	2.05076771e+03	4.09945061e+06	1.21542650e+00	1.80817820e-05	-1.56353939e-52	1.83560573e-58	1.71096047e-52
4.06998269e-01	1.29320011e-01	8.22883095e-04	1.06846906e+00	1.12323013e+05	3.00000000e+02	2.04975236e+03	4.09729382e+06	1.21513944e+00	1.80817820e-05	-1.84922955e-52	2.20471320e-58	2.08303903e-52
4.06992175e-01	1.29320011e-01	8.52204278e-04	1.06865790e+00	1.12313679e+05	3.00000000e+02	2.04640996e+03	4.09127542e+06	1.21425598e+00	1.80817820e-05	-2.17744634e-52	2.63533368e-58	2.52374284e-52
4.06986072e-01	1.29320011e-01	8.81526807e-04	1.06860841e+00	1.12307000e+05	3.00000000e+02	2.04631875e+03	4.09097089e+06	1.21420076e+00	1.80817820e-05	-2.55388970e-52	3.14083931e-58	3.04465126e-52
4.06979971e-01	1.29320011e-01	9.10846800e-04	1.06853174e+00	1.12300906e+05	3.00000000e+02	2.04647804e+03	4.09137641e+06	1.21420429e+00	1.80817820e-05	-2.98453827e-52	3.73065247e-58	3.65868568e-52
4.06973877e-01	1.29320011e-01	9.40168272e-04	1.06850580e+00	1.12289805e+05	3.00000000e+02	2.04845594e+03	4.08992289e+06	1.21469491e+00	1.80817820e-05	-3.47627539e-52	4.41690971e-58	4.38104851e-52
4.07066596e-01	1.29320011e-01	6.81564891e-04	1.06926296e+00	1.12388937e+05	3.00000000e+02	2.04685997e+03	4.09368593e+06	1.21473131e+00	1.80817820e-05	-8.31137283e-53	9.88830051e-59	8.08910152e-53
4.07061805e-01	1.29320011e-01	7.11455468e-04	1.06922322e+00	1.12384188e+05	3.00000000e+02	2.04677064e+03	4.09356445e+06	1.21468328e+00	1.80817820e-05	-1.01332384e-52	1.23898789e-58	1.01951999e-52
4.07057024e-01	1.29320011e-01	7.41340868e-04	1.06918226e+00	1.12379478e+05	3.00000000e+02	2.04677794e+03	4.09347876e+06	1.21466282e+00	1.80817820e-05	-1.22292717e-52	1.53281261e-58	1.27118505e-52
4.07052241e-01	1.29320011e-01	7.71230181e-04	1.06912091e+00	1.12374877e+05	3.00000000e+02	2.04712373e+03	4.09386153e+06	1.21473002e+00	1.80817820e-05	-1.46584752e-52	1.88249523e-58	1.57319919e-52
4.07047443e-01	1.29320011e-01	8.01119533e-04	1.06904342e+00	1.12371261e+05	3.00000000e+02	2.04798854e+03	4.09479364e+06	1.21494293e+00	1.80817820e-05	-1.74678040e-52	2.29785406e-58	1.93464830e-52
4.07042652e-01	1.29320011e-01	8.31010575e-04	1.06903452e+00	1.12365440e+05	3.00000000e+02	2.04735227e+03	4.09378693e+06	1.21474908e+00	1.80817820e-05	-2.07095181e-52	2.79030647e-58	2.36614122e-52
4.07037869e-01	1.29320011e-01	8.60900089e-04	1.06903057e+00	1.12359038e+05	3.00000000e+02	2.04646110e+03	4.09255177e+06	1.21448282e+00	1.80817820e-05	-2.44426008e-52	3.37450247e-58	2.88004747e-52
4.07033080e-01	1.29320011e-01	8.90788331e-04	1.06899166e+00	1.12354154e+05	3.00000000e+02	2.04640432e+03	4.09238775e+06	1.21444390e+00	1.80817820e-05	-2.87305165e-52	4.06478194e-58	3.49040430e-52
4.07028288e-01	1.29320011e-01	9.20679567e-04	1.06891854e+00	1.12350408e+05	3.00000000e+02	2.04689099e+03	4.09320040e+06	1.21454655e+00	1.80817820e-05	-3.36427527e-52	4.87862949e-58	4.21332715e-52
4.07023505e-01	1.29320011e-01	9.50569507e-04	1.06856038e+00	1.12347480e+05	3.00000000e+02	2.05109341e+03	4.10035839e+06	1.21558912e+00	1.80817820e-05	-3.92552934e-52	5.83532316e-58	5.06727538e-52
4.07065995e-01	1.29320011e-01	6.45273186e-04	1.06923971e+00	1.12388929e+05	3.00000000e+02	2.04711881e+03	4.09417961e+06	1.21479735e+00	1.80817820e-05	-6.14811254e-53	7.11813739e-59	5.73561258e-53
4.07104604e-01	1.29320011e-01	6.85545827e-04	1.06955703e+00	1.12426474e+05	3.00000000e+02	2.04704444e+03	4.09504347e+06	1.21495537e+00	1.80817820e-05	-9.04182827e-53	1.19503965e-58	8.88272264e-53
4.07101155e-01	1.29320011e-01	7.15859998e-04	1.06953230e+00	1.12422910e+05	3.00000000e+02	2.04698510e+03	4.09484784e+06	1.21492278e+00	1.80817820e-05	-1.10429433e-52	1.51418145e-58	1.12430745e-52
4.07097712e-01	1.29320011e-01	7.46179661e-04	1.06950107e+00	1.12419316e+05	3.00000000e+02	2.04700309e+03	4.09478279e+06	1.21491071e+00	1.80817820e-05	-1.33456455e-52	1.89485212e-58	1.40759374e-52
4.07094270e-01	1.29320011e-01	7.76495733e-04	1.06945708e+00	1.12415584e+05	3.00000000e+02	2.04721996e+03	4.09496773e+06	1.21494971e+00	1.80817820e-05	-1.60154202e-52	2.35380366e-58	1.74920875e-52
4.07090813e-01	1.29320011e-01	8.06811986e-04	1.06942799e+00	1.12411798e+05	3.00000000e+02	2.04727898e+03	4.09481766e+06	1.21495070e+00	1.80817820e-05	-1.91036449e-52	2.90619623e-58	2.16009657e-52
4.07087371e-01	1.29320011e-01	8.37128387e-04	1.06941688e+00	1.12408036e+05	3.00000000e+02	2.04691736e+03	4.09428247e+06	1.21483728e+00	1.80817820e-05	-2.26670766e-52	3.57095217e-58	2.65310295e-52
4.07083937e-01	1.29320011e-01	8.67443311e-04	1.06939761e+00	1.12404607e+05	3.00000000e+02	2.04666410e+03	4.09399285e+06	1.21475136e+00	1.80817820e-05	-2.67683418e-52	4.36969061e-58	3.24314223e-52
4.07080487e-01	1.29320011e-01	8.97761632e-04	1.06936508e+00	1.12401141e+05	3.00000000e+02	2.04669073e+03	4.09398335e+06	1.21474073e+00	1.80817820e-05	-3.14753572e-52	5.32588407e-58	3.94738172e-52
4.07077039e-01	1.29320011e-01	9.28076910e-04	1.06931104e+00	1.12397807e+05	3.00000000e+02	2.04710846e+03	4.09446756e+06	1.21483379e+00	1.80817820e-05	-3.68610878e-52	6.46609460e-58	4.78542407e-52
4.07073597e-01	1.29320011e-01	9.58393867e-04	1.06924316e+00	1.12395334e+05	3.00000000e+02	2.04799533e+03	4.09542658e+06	1.21505876e+00	1.80817820e-05	-4.30044063e-52	7.81178488e-58	5.77963282e-52
4.07104092e-01	1.29320011e-01	6.48907808e-04	1.06955444e+00	1.12426097e+05	3.00000000e+02	2.04712247e+03	4.09502768e+06	1.21497535e+00	1.80817820e-05	-6.71389420e-53	8.57709294e-59	6.30357161e-53
4.07142722e-01	1.29320011e-01	6.88211584e-04	1.06986067e+00	1.12463871e+05	3.00000000e+02	2.04726541e+03	4.09617665e+06	1.21519197e+00	1.80817820e-05	-9.67527620e-53	1.45293334e-58	9.65435609e-53
4.07140636e-01	1.29320011e-01	7.18816031e-04	1.06984643e+00	1.12462139e+05	3.00000000e+02	2.04724036e+03	4.09612691e+06	1.21517688e+00	1.80817820e-05	-1.18211782e-52	1.86200590e-58	1.22693107e-52
4.07138558e-01	1.29320011e-01	7.49411309e-04	1.06982799e+00	1.12460099e+05	3.00000000e+02	2.04722571e+03	4.09610405e+06	1.21516266e+00	1.80817820e-05	-1.42836323e-52	2.35811250e-58	1.54200141e-52
4.07136486e-01	1.29320011e-01	7.80015973e-04	1.06980466e+00	1.12457938e+05	3.00000000e+02	2.04730945e+03	4.09616657e+06	1.21517350e+00	1.80817820e-05	-1.71314628e-52	2.96433982e-58	1.92364070e-52
4.07134415e-01	1.29320011e-01	8.10617176e-04	1.06979200e+00	1.12455533e+05	3.00000000e+02	2.04724069e+03	4.09594391e+06	1.21514629e+00	1.80817820e-05	-2.04171479e-52	3.70507765e-58	2.38499671e-52
4.07132345e-01	1.29320011e-01	8.41215250e-04	1.06978646e+00	1.12453394e+05	3.00000000e+02	2.04699025e+03	4.09562422e+06	1.21506861e+00	1.80817820e-05	-2.41952896e-52	4.60859896e-58	2.94118419e-52
4.07130273e-01	1.29320011e-01	8.71820021e-04	1.06977499e+00	1.12451405e+05	3.00000000e+02	2.04687418e+03	4.09546223e+06	1.21502783e+00	1.80817820e-05	-2.85265471e-52	5.70946879e-58	3.61022580e-52
4.07128195e-01	1.29320011e-01	9.02419981e-04	1.06975217e+00	1.12449310e+05	3.00000000e+02	2.04692871e+03	4.09552548e+06	1.21503087e+00	1.80817820e-05	-3.34746045e-52	7.04657960e-58	4.41289908e-52
4.07126109e-01	1.29320011e-01	9.33021806e-04	1.06972021e+00	1.12447283e+05	3.00000000e+02	2.04717786e+03	4.09579989e+06	1.21508665e+00	1.80817820e-05	-3.91071108e-52	8.66306663e-58	5.37302027e-52
4.07180915e-01	1.29320011e-01	6.89548161e-04	1.07012918e+00	1.12500440e+05	3.00000000e+02	2.04806364e+03	4.09789312e+06	1.21558181e+00	1.80817820e-05	-1.01756398e-52	1.77839278e-58	1.03984624e-52
4.07180223e-01	1.29320011e-01	7.20289465e-04	1.07016158e+00	1.12502011e+05	3.00000000e+02	2.04751117e+03	4.09751402e+06	1.21543663e+00	1.80817820e-05	-1.24169062e-52	2.30209717e-58	1.32653275e-52
4.07179530e-01	1.29320011e-01	7.51034809e-04	1.07015532e+00	1.12501270e+05	3.00000000e+02	2.04750002e+03	4.09749674e+06	1.21542977e+00	1.80817820e-05	-1.49728028e-52	2.94997235e-58	1.67337627e-52
4.07178837e-01	1.29320011e-01	7.81776589e-04	1.07015224e+00	1.12500921e+05	3.00000000e+02	2.04751980e+03	4.09749300e+06	1.21543349e+00	1.80817820e-05	-1.79105745e-52	3.75269444e-58	2.09537465e-52
4.07178151e-01	1.29320011e-01	8.12520462e-04	1.07015751e+00	1.12500748e+05	3.00000000e+02	2.04741006e+03	4.09734266e+06	1.21540412e+00	1.80817820e-05	-2.12768328e-52	4.74678861e-58	2.60795164e-52
4.07177459e-01	1.29320011e-01	8.43266066e-04	1.07016553e+00	1.12500353e+05	3.00000000e+02	2.04719548e+03	4.09708839e+06	1.21534479e+00	1.80817820e-05	-2.51173925e-52	5.97698477e-58	3.22916770e-52
4.07176766e-01	1.29320011e-01	8.74008503e-04	1.07016456e+00	1.12500014e+05	3.00000000e+02	2.04710373e+03	4.09703887e+06	1.21531719e+00	1.80817820e-05	-2.94792452e-52	7.49669649e-58	3.98039049e-52