VARIABLES ="X" "Y" "Z" "rho" "press" "temp" "tau_wall" "qdot" "yplus" "muLam" "ZMean" "ZVar" "CMean" 
Zone T ="wall" I = 8632 , F = point
5.68622500e-01	1.29320011e-01	4.39453148e-03	1.82581312e+00	2.04600912e+05	3.00000000e+02	2.42507467e+03	5.48154304e+06	1.71810530e+00	1.81834605e-05	5.00347454e-04	3.63422390e-13	5.34801104e-03
5.68622500e-01	1.29320011e-01	4.98046889e-03	1.85098344e+00	2.07595226e+05	3.00000000e+02	2.44297251e+03	5.50499801e+06	1.73485756e+00	1.81983633e-05	3.22122121e-04	2.34994426e-13	3.87227533e-03
5.86769879e-01	1.29320011e-01	2.92968761e-04	2.15503583e+00	2.52167160e+05	3.00000000e+02	2.08335545e+03	6.40129140e+06	1.74063172e+00	1.80733075e-05	3.45199739e-03	2.22225634e-12	3.03721458e-02
5.85355252e-01	1.29320011e-01	2.92968761e-04	2.18097470e+00	2.55628125e+05	3.00000000e+02	2.06320155e+03	6.45403399e+06	1.74244882e+00	1.80747253e-05	3.35507065e-03	2.32582894e-12	2.95501217e-02
5.83943754e-01	1.29320011e-01	2.92968761e-04	2.18789080e+00	2.56252982e+05	3.00000000e+02	2.03235604e+03	6.44684775e+06	1.73216296e+00	1.80742200e-05	3.25751532e-03	2.30804778e-12	2.86517235e-02
5.82535386e-01	1.29320011e-01	2.92968761e-04	2.17841359e+00	2.54347648e+05	3.00000000e+02	2.00016064e+03	6.37572604e+06	1.71452554e+00	1.80756634e-05	3.16081089e-03	2.19143227e-12	2.77109115e-02
5.81130147e-01	1.29320011e-01	2.92968761e-04	2.14751690e+00	2.49826268e+05	3.00000000e+02	1.98346833e+03	6.27622702e+06	1.69452200e+00	1.80829514e-05	3.06676330e-03	2.06665100e-12	2.70463199e-02
5.79728007e-01	1.29320011e-01	2.92968761e-04	2.09574496e+00	2.42765810e+05	3.00000000e+02	1.98465536e+03	6.16363225e+06	1.67398105e+00	1.80882614e-05	2.97588065e-03	1.98056599e-12	2.63949181e-02
5.78328996e-01	1.29320011e-01	2.92968761e-04	2.02636536e+00	2.33322906e+05	3.00000000e+02	1.98645125e+03	6.01746307e+06	1.64678474e+00	1.80882518e-05	2.88700490e-03	1.84341399e-12	2.56028307e-02
5.76933116e-01	1.29320011e-01	2.92968761e-04	1.94808380e+00	2.22627291e+05	3.00000000e+02	1.98465901e+03	5.84701942e+06	1.61455333e+00	1.80813133e-05	2.80051864e-03	1.61234207e-12	2.47606909e-02
5.75540334e-01	1.29320011e-01	2.92968761e-04	1.87651509e+00	2.12755544e+05	3.00000000e+02	1.99219556e+03	5.64297245e+06	1.58708132e+00	1.80874952e-05	2.71819524e-03	1.37538816e-12	2.40171853e-02
5.74150622e-01	1.29320011e-01	2.92968761e-04	1.81678768e+00	2.04601911e+05	3.00000000e+02	2.01775339e+03	5.45893700e+06	1.57046149e+00	1.81006610e-05	2.64096904e-03	1.22625174e-12	2.34110880e-02
5.72763980e-01	1.29320011e-01	2.92968761e-04	1.77091453e+00	1.98454508e+05	3.00000000e+02	2.04896093e+03	5.33137329e+06	1.56176111e+00	1.81086732e-05	2.56731678e-03	1.14821921e-12	2.28182203e-02
5.71380437e-01	1.29320011e-01	2.92968761e-04	1.74120739e+00	1.94533538e+05	3.00000000e+02	2.07772114e+03	5.26077257e+06	1.55921466e+00	1.81112560e-05	2.49545133e-03	1.10927851e-12	2.22316635e-02
5.69999934e-01	1.29320011e-01	2.92968761e-04	1.72841667e+00	1.92904859e+05	3.00000000e+02	2.10645503e+03	5.24685789e+06	1.56434681e+00	1.81093505e-05	2.42424506e-03	1.10552243e-12	2.16337266e-02
5.68622500e-01	1.29320011e-01	2.92968761e-04	1.73378738e+00	1.93643697e+05	3.00000000e+02	2.13504333e+03	5.28041353e+06	1.57765945e+00	1.81060451e-05	2.35266929e-03	1.12725920e-12	2.09401352e-02
5.86769879e-01	1.29320011e-01	8.78906286e-04	2.15145425e+00	2.51829867e+05	3.00000000e+02	2.11187023e+03	6.42899108e+06	1.75100672e+00	1.80737160e-05	3.27683759e-03	2.18565708e-12	2.88797007e-02
5.85355252e-01	1.29320011e-01	8.78906286e-04	2.17748853e+00	2.55042567e+05	3.00000000e+02	2.07897786e+03	6.46109125e+06	1.74784473e+00	1.80732234e-05	3.17985785e-03	2.18856597e-12	2.79150892e-02
5.83943754e-01	1.29320011e-01	8.78906286e-04	2.18533800e+00	2.55596941e+05	3.00000000e+02	2.05415174e+03	6.42073125e+06	1.73979348e+00	1.80806262e-05	3.08460976e-03	2.13497750e-12	2.71999330e-02
5.82535386e-01	1.29320011e-01	8.78906287e-04	2.17435429e+00	2.53906590e+05	3.00000000e+02	2.04420652e+03	6.37580806e+06	1.73063674e+00	1.80866118e-05	2.99320805e-03	2.12127900e-12	2.65924910e-02
5.81130147e-01	1.29320011e-01	8.78906286e-04	2.14373087e+00	2.49632858e+05	3.00000000e+02	2.03321817e+03	6.30928669e+06	1.71364549e+00	1.80880494e-05	2.90493633e-03	2.08891575e-12	2.58453148e-02
5.79728007e-01	1.29320011e-01	8.78906286e-04	2.09301764e+00	2.42618077e+05	3.00000000e+02	2.01451963e+03	6.21065492e+06	1.68596886e+00	1.80824904e-05	2.81879126e-03	1.95559738e-12	2.49995073e-02
5.78328997e-01	1.29320011e-01	8.78906287e-04	2.02634653e+00	2.33402783e+05	3.00000000e+02	2.00203707e+03	6.05279265e+06	1.65362318e+00	1.80838944e-05	2.73521041e-03	1.73495913e-12	2.42041500e-02
5.76933116e-01	1.29320011e-01	8.78906287e-04	1.95206567e+00	2.23078857e+05	3.00000000e+02	2.01661908e+03	5.83398940e+06	1.62768334e+00	1.80977600e-05	2.65578540e-03	1.54106935e-12	2.35600506e-02
5.75540334e-01	1.29320011e-01	8.78906286e-04	1.87898152e+00	2.13204572e+05	3.00000000e+02	2.04508876e+03	5.64658006e+06	1.60733441e+00	1.81070079e-05	2.57980604e-03	1.39538179e-12	2.29536688e-02
5.74150622e-01	1.29320011e-01	8.78906286e-04	1.81636523e+00	2.04832846e+05	3.00000000e+02	2.06863687e+03	5.49405085e+06	1.58904915e+00	1.81109815e-05	2.50562731e-03	1.27675157e-12	2.23439446e-02
5.72763980e-01	1.29320011e-01	8.78906287e-04	1.76930326e+00	1.98560721e+05	3.00000000e+02	2.08626360e+03	5.38371644e+06	1.57514171e+00	1.81093012e-05	2.43287682e-03	1.18362324e-12	2.17450440e-02
5.71380436e-01	1.29320011e-01	8.78906286e-04	1.74016175e+00	1.94650806e+05	3.00000000e+02	2.10080328e+03	5.31647779e+06	1.56780816e+00	1.81063194e-05	2.36145273e-03	1.11691843e-12	2.10569412e-02
5.69999934e-01	1.29320011e-01	8.78906286e-04	1.72851649e+00	1.93040077e+05	3.00000000e+02	2.11448821e+03	5.29676217e+06	1.56807899e+00	1.81011871e-05	2.29085929e-03	1.06504899e-12	2.03522992e-02
5.68622500e-01	1.29320011e-01	8.78906286e-04	1.73632928e+00	1.93961573e+05	3.00000000e+02	2.13964436e+03	5.30875985e+06	1.58074980e+00	1.81033648e-05	2.22099665e-03	1.04394943e-12	1.97942335e-02
5.86769879e-01	1.29320011e-01	1.46484381e-03	2.14958616e+00	2.51297852e+05	3.00000000e+02	2.16067828e+03	6.40969624e+06	1.76905702e+00	1.80869879e-05	2.94764576e-03	2.04902018e-12	2.63087211e-02
5.85355252e-01	1.29320011e-01	1.46484381e-03	2.17344886e+00	2.54404142e+05	3.00000000e+02	2.13777883e+03	6.45688454e+06	1.76960179e+00	1.80849015e-05	2.85363456e-03	2.11881289e-12	2.54583625e-02
5.83943754e-01	1.29320011e-01	1.46484381e-03	2.17875382e+00	2.54809280e+05	3.00000000e+02	2.10395172e+03	6.45623747e+06	1.75825006e+00	1.80791048e-05	2.76237040e-03	2.05080043e-12	2.45745092e-02
5.82535386e-01	1.29320011e-01	1.46484381e-03	2.16966963e+00	2.53130556e+05	3.00000000e+02	2.08265460e+03	6.37866093e+06	1.74448711e+00	1.80914452e-05	2.67673716e-03	1.96011452e-12	2.38470073e-02
5.81130147e-01	1.29320011e-01	1.46484381e-03	2.14304006e+00	2.49205159e+05	3.00000000e+02	2.07954074e+03	6.28246466e+06	1.73137181e+00	1.81027317e-05	2.59768749e-03	1.91906190e-12	2.32248211e-02
5.79728007e-01	1.29320011e-01	1.46484381e-03	2.09643976e+00	2.42781071e+05	3.00000000e+02	2.07927888e+03	6.17442040e+06	1.71178030e+00	1.81086109e-05	2.52393990e-03	1.85753305e-12	2.26149546e-02
5.78328997e-01	1.29320011e-01	1.46484381e-03	2.03189293e+00	2.34037630e+05	3.00000000e+02	2.07835306e+03	6.04279184e+06	1.68482524e+00	1.81088474e-05	2.45374681e-03	1.74701652e-12	2.20273009e-02
5.76933116e-01	1.29320011e-01	1.46484381e-03	1.95603612e+00	2.23755565e+05	3.00000000e+02	2.07570849e+03	5.87854939e+06	1.65222509e+00	1.81066456e-05	2.38450274e-03	1.58068431e-12	2.13805695e-02
5.75540334e-01	1.29320011e-01	1.46484381e-03	1.88124640e+00	2.13557249e+05	3.00000000e+02	2.07098253e+03	5.70028125e+06	1.61883513e+00	1.81027284e-05	2.31482931e-03	1.37471722e-12	2.06569646e-02
5.74150622e-01	1.29320011e-01	1.46484381e-03	1.81848325e+00	2.04884541e+05	3.00000000e+02	2.06786132e+03	5.52413791e+06	1.59056828e+00	1.81008362e-05	2.24563625e-03	1.16719671e-12	2.00173863e-02
5.72763980e-01	1.29320011e-01	1.46484381e-03	1.77219084e+00	1.98564345e+05	3.00000000e+02	2.08651096e+03	5.37869291e+06	1.57658158e+00	1.81085938e-05	2.17919611e-03	1.03627499e-12	1.95783127e-02
5.71380437e-01	1.29320011e-01	1.46484381e-03	1.74384047e+00	1.94848527e+05	3.00000000e+02	2.12638140e+03	5.30312561e+06	1.57809616e+00	1.81165748e-05	2.11568779e-03	1.00159858e-12	1.91494699e-02
5.69999933e-01	1.29320011e-01	1.46484381e-03	1.73363690e+00	1.93625618e+05	3.00000000e+02	2.16958368e+03	5.29055804e+06	1.58887517e+00	1.81222907e-05	2.05314457e-03	1.01719444e-12	1.86610325e-02
5.68622500e-01	1.29320011e-01	1.46484381e-03	1.74188779e+00	1.94813637e+05	3.00000000e+02	2.21034357e+03	5.32857683e+06	1.60731750e+00	1.81248283e-05	1.98973905e-03	1.06294077e-12	1.80997574e-02
5.88187665e-01	1.29320011e-01	2.05078133e-03	2.10485827e+00	2.44745640e+05	3.00000000e+02	2.22809546e+03	6.28622368e+06	1.77650400e+00	1.80987146e-05	2.60766878e-03	1.70950977e-12	2.34450245e-02
5.86769879e-01	1.29320011e-01	2.05078133e-03	2.14634241e+00	2.50365390e+05	3.00000000e+02	2.22716674e+03	6.36691516e+06	1.79275029e+00	1.81067983e-05	2.51517842e-03	1.85268337e-12	2.26831716e-02
5.85355252e-01	1.29320011e-01	2.05078133e-03	2.16804245e+00	2.53310890e+05	3.00000000e+02	2.21175711e+03	6.42039714e+06	1.79555010e+00	1.81067571e-05	2.42563052e-03	1.93019780e-12	2.19129023e-02
5.83943754e-01	1.29320011e-01	2.05078133e-03	2.17242170e+00	2.53770905e+05	3.00000000e+02	2.18577879e+03	6.43156003e+06	1.78711511e+00	1.81033205e-05	2.34145523e-03	1.92911922e-12	2.10873923e-02
5.82535386e-01	1.29320011e-01	2.05078133e-03	2.16273486e+00	2.52086476e+05	3.00000000e+02	2.15094538e+03	6.39307700e+06	1.76928493e+00	1.80989821e-05	2.26394316e-03	1.83776985e-12	2.02853627e-02
5.81130147e-01	1.29320011e-01	2.05078133e-03	2.13943524e+00	2.48406506e+05	3.00000000e+02	2.12491675e+03	6.29093156e+06	1.74854163e+00	1.81042340e-05	2.19424302e-03	1.71910495e-12	1.97685296e-02
5.79728007e-01	1.29320011e-01	2.05078133e-03	2.09914344e+00	2.42650755e+05	3.00000000e+02	2.11580372e+03	6.16805693e+06	1.72750816e+00	1.81123264e-05	2.13254575e-03	1.61653652e-12	1.93848015e-02
5.78328997e-01	1.29320011e-01	2.05078133e-03	2.04012794e+00	2.34540111e+05	3.00000000e+02	2.11411321e+03	6.02327673e+06	1.70181109e+00	1.81182843e-05	2.07635279e-03	1.50060336e-12	1.89798516e-02
5.76933116e-01	1.29320011e-01	2.05078133e-03	1.96646654e+00	2.24549834e+05	3.00000000e+02	2.11810266e+03	5.85088103e+06	1.67201487e+00	1.81222553e-05	2.02187110e-03	1.36563269e-12	1.85217774e-02
5.75540334e-01	1.29320011e-01	2.05078133e-03	1.89005869e+00	2.14309041e+05	3.00000000e+02	2.12772832e+03	5.67746102e+06	1.64281484e+00	1.81235267e-05	1.96666397e-03	1.22868678e-12	1.79995289e-02
5.74150622e-01	1.29320011e-01	2.05078133e-03	1.82395175e+00	2.05468343e+05	3.00000000e+02	2.13651023e+03	5.52523989e+06	1.61737837e+00	1.81210404e-05	1.91037329e-03	1.09662516e-12	1.74344891e-02
5.72763979e-01	1.29320011e-01	2.05078133e-03	1.77582787e+00	1.99001066e+05	3.00000000e+02	2.14823956e+03	5.39904471e+06	1.60015202e+00	1.81224180e-05	1.85406059e-03	9.85117910e-13	1.68836833e-02
5.71380436e-01	1.29320011e-01	2.05078133e-03	1.74869841e+00	1.95330376e+05	3.00000000e+02	2.17334764e+03	5.31641491e+06	1.59662325e+00	1.81282218e-05	1.79836072e-03	9.26302811e-13	1.63705124e-02
5.69999933e-01	1.29320011e-01	2.05078133e-03	1.74119520e+00	1.94409504e+05	3.00000000e+02	2.21341474e+03	5.29991503e+06	1.60707473e+00	1.81365490e-05	1.74256594e-03	9.25488730e-13	1.59248070e-02
5.68622500e-01	1.29320011e-01	2.05078133e-03	1.75186514e+00	1.95966758e+05	3.00000000e+02	2.26035666e+03	5.34408734e+06	1.62842177e+00	1.81429339e-05	1.68477062e-03	9.72179477e-13	1.54626015e-02
5.89608640e-01	1.29320011e-01	2.63671891e-03	2.04981849e+00	2.36750123e+05	3.00000000e+02	2.27576926e+03	6.15869043e+06	1.77156173e+00	1.81009397e-05	2.21309852e-03	1.36186456e-12	2.00936027e-02
5.88187664e-01	1.29320011e-01	2.63671891e-03	2.10098418e+00	2.43710930e+05	3.00000000e+02	2.27810649e+03	6.26293523e+06	1.79352699e+00	1.81103182e-05	2.12285439e-03	1.43250436e-12	1.94822662e-02
5.86769879e-01	1.29320011e-01	2.63671891e-03	2.13962754e+00	2.48947847e+05	3.00000000e+02	2.28197589e+03	6.33608351e+06	1.81061459e+00	1.81189988e-05	2.03502800e-03	1.54000126e-12	1.88131655e-02
5.85355252e-01	1.29320011e-01	2.63671891e-03	2.15997421e+00	2.51663976e+05	3.00000000e+02	2.27179660e+03	6.37768412e+06	1.81488750e+00	1.81215313e-05	1.95218905e-03	1.60161471e-12	1.80502870e-02
5.83943754e-01	1.29320011e-01	2.63671891e-03	2.16429665e+00	2.52130169e+05	3.00000000e+02	2.24797631e+03	6.38913269e+06	1.80751398e+00	1.81179138e-05	1.87723433e-03	1.58471626e-12	1.72917842e-02
5.82535386e-01	1.29320011e-01	2.63671891e-03	2.15697349e+00	2.50828569e+05	3.00000000e+02	2.22431296e+03	6.34217531e+06	1.79449936e+00	1.81222717e-05	1.81177611e-03	1.52929866e-12	1.66571811e-02
5.81130147e-01	1.29320011e-01	2.63671891e-03	2.13677992e+00	2.47724237e+05	3.00000000e+02	2.20899206e+03	6.25436220e+06	1.77898939e+00	1.81317287e-05	1.75581924e-03	1.47403755e-12	1.61951611e-02
5.79728007e-01	1.29320011e-01	2.63671891e-03	2.10160198e+00	2.42684226e+05	3.00000000e+02	2.19543029e+03	6.14859123e+06	1.75824065e+00	1.81381229e-05	1.70765821e-03	1.40381107e-12	1.58011521e-02
5.78328996e-01	1.29320011e-01	2.63671891e-03	2.04798175e+00	2.35171117e+05	3.00000000e+02	2.18203027e+03	6.00445013e+06	1.72994748e+00	1.81424571e-05	1.66461302e-03	1.29680237e-12	1.54466003e-02
5.76933116e-01	1.29320011e-01	2.63671891e-03	1.97729506e+00	2.25455801e+05	3.00000000e+02	2.17676970e+03	5.82669842e+06	1.69751763e+00	1.81452637e-05	1.62366556e-03	1.16871439e-12	1.51094081e-02
5.75540334e-01	1.29320011e-01	2.63671891e-03	1.90072194e+00	2.15171417e+05	3.00000000e+02	2.18489313e+03	5.65001184e+06	1.66732944e+00	1.81463202e-05	1.58234155e-03	1.04923118e-12	1.47784348e-02
5.74150622e-01	1.29320011e-01	2.63671891e-03	1.83330008e+00	2.06270904e+05	3.00000000e+02	2.20113299e+03	5.50419788e+06	1.64363293e+00	1.81455728e-05	1.53929727e-03	9.56153516e-13	1.44270946e-02
5.72763980e-01	1.29320011e-01	2.63671891e-03	1.78399944e+00	1.99811813e+05	3.00000000e+02	2.21989255e+03	5.40002374e+06	1.62842670e+00	1.81439030e-05	1.49438830e-03	8.89825090e-13	1.40068518e-02
5.71380436e-01	1.29320011e-01	2.63671891e-03	1.75695954e+00	1.96285185e+05	3.00000000e+02	2.23927213e+03	5.34863841e+06	1.62334901e+00	1.81408659e-05	1.44751940e-03	8.47850410e-13	1.35272140e-02
5.69999934e-01	1.29320011e-01	2.63671891e-03	1.75191065e+00	1.95621385e+05	3.00000000e+02	2.25811550e+03	5.35059274e+06	1.62825612e+00	1.81360176e-05	1.39825940e-03	8.22920660e-13	1.30187978e-02
5.68622500e-01	1.29320011e-01	2.63671891e-03	1.76551220e+00	1.97353614e+05	3.00000000e+02	2.28037585e+03	5.38997243e+06	1.64292281e+00	1.81324720e-05	1.34568341e-03	8.08575254e-13	1.25463683e-02
5.89608640e-01	1.29320011e-01	3.22265644e-03	2.05102622e+00	2.36397256e+05	3.00000000e+02	2.34893860e+03	6.10751829e+06	1.79726690e+00	1.81319478e-05	1.73053313e-03	1.10815314e-12	1.61816483e-02
5.88187665e-01	1.29320011e-01	3.22265643e-03	2.09764429e+00	2.42643912e+05	3.00000000e+02	2.35991675e+03	6.19601499e+06	1.82092120e+00	1.81408950e-05	1.64796899e-03	1.18586734e-12	1.55163824e-02
5.86769879e-01	1.29320011e-01	3.22265643e-03	2.13109967e+00	2.47166944e+05	3.00000000e+02	2.35899240e+03	6.26815179e+06	1.83462558e+00	1.81448467e-05	1.56834264e-03	1.24613781e-12	1.48514894e-02
5.85355252e-01	1.29320011e-01	3.22265644e-03	2.14905640e+00	2.49628080e+05	3.00000000e+02	2.34992841e+03	6.31977239e+06	1.83898528e+00	1.81429777e-05	1.49522999e-03	1.28120712e-12	1.42237398e-02
5.83943754e-01	1.29320011e-01	3.22265643e-03	2.15342831e+00	2.50224067e+05	3.00000000e+02	2.33296392e+03	6.34349132e+06	1.83460431e+00	1.81389610e-05	1.43118608e-03	1.28502214e-12	1.35645705e-02
5.82535386e-01	1.29320011e-01	3.22265644e-03	2.14639195e+00	2.49227349e+05	3.00000000e+02	2.30642183e+03	6.34104030e+06	1.82172273e+00	1.81333149e-05	1.37679550e-03	1.25252868e-12	1.29658870e-02
5.81130147e-01	1.29320011e-01	3.22265643e-03	2.12967552e+00	2.46686006e+05	3.00000000e+02	2.27471947e+03	6.28418578e+06	1.80211726e+00	1.81331474e-05	1.33134698e-03	1.18912093e-12	1.25340964e-02
5.79728007e-01	1.29320011e-01	3.22265643e-03	2.10116035e+00	2.42375189e+05	3.00000000e+02	2.24533235e+03	6.17387699e+06	1.77792411e+00	1.81381209e-05	1.29344244e-03	1.10912502e-12	1.22533119e-02
5.78328996e-01	1.29320011e-01	3.22265644e-03	2.05366635e+00	2.35526966e+05	3.00000000e+02	2.22098881e+03	6.02099838e+06	1.74761868e+00	1.81437497e-05	1.26099447e-03	1.00828877e-12	1.20365162e-02
5.76933116e-01	1.29320011e-01	3.22265643e-03	1.98717866e+00	2.26276440e+05	3.00000000e+02	2.20727423e+03	5.83676493e+06	1.71334886e+00	1.81483189e-05	1.23184300e-03	8.95762986e-13	1.18379242e-02
5.75540334e-01	1.29320011e-01	3.22265643e-03	1.91240757e+00	2.16199106e+05	3.00000000e+02	2.21205243e+03	5.65384732e+06	1.68225094e+00	1.81523456e-05	1.20367376e-03	7.97289371e-13	1.16367171e-02
5.74150622e-01	1.29320011e-01	3.22265644e-03	1.84512901e+00	2.07366920e+05	3.00000000e+02	2.23278246e+03	5.50541118e+06	1.65976772e+00	1.81561958e-05	1.17413842e-03	7.28804550e-13	1.14086156e-02
5.72763980e-01	1.29320011e-01	3.22265644e-03	1.79572219e+00	2.01008760e+05	3.00000000e+02	2.26292728e+03	5.40538771e+06	1.64807445e+00	1.81599080e-05	1.14177305e-03	6.90816443e-13	1.11337692e-02
5.71380437e-01	1.29320011e-01	3.22265643e-03	1.76959920e+00	1.97733587e+05	3.00000000e+02	2.29670973e+03	5.36173617e+06	1.64791330e+00	1.81631743e-05	1.10581379e-03	6.78412686e-13	1.07992736e-02
5.69999933e-01	1.29320011e-01	3.22265643e-03	1.76662893e+00	1.97472832e+05	3.00000000e+02	2.32929217e+03	5.37275659e+06	1.65796702e+00	1.81653747e-05	1.06566951e-03	6.82859292e-13	1.03980855e-02
5.68622500e-01	1.29320011e-01	3.22265643e-03	1.78227566e+00	1.99579555e+05	3.00000000e+02	2.35767593e+03	5.42258879e+06	1.67539153e+00	1.81655593e-05	1.02062014e-03	6.93463038e-13	9.93342436e-03
5.89608640e-01	1.29320011e-01	3.80859396e-03	2.04976233e+00	2.35379443e+05	3.00000000e+02	2.37840917e+03	6.06475071e+06	1.80763623e+00	1.81350851e-05	1.29066258e-03	8.06423433e-13	1.25013179e-02
5.88187664e-01	1.29320011e-01	3.80859396e-03	2.08996323e+00	2.40900322e+05	3.00000000e+02	2.39033737e+03	6.15087739e+06	1.82878582e+00	1.81456143e-05	1.21814304e-03	8.40162131e-13	1.20038510e-02
5.86769879e-01	1.29320011e-01	3.80859396e-03	2.11960134e+00	2.44933153e+05	3.00000000e+02	2.40081534e+03	6.20815032e+06	1.84477378e+00	1.81551128e-05	1.14983474e-03	8.84007814e-13	1.14745915e-02
5.85355252e-01	1.29320011e-01	3.80859396e-03	2.13607235e+00	2.47182694e+05	3.00000000e+02	2.40225597e+03	6.24248887e+06	1.85188564e+00	1.81609705e-05	1.08885471e-03	9.09640467e-13	1.09325792e-02
5.83943754e-01	1.29320011e-01	3.80859396e-03	2.14194945e+00	2.47979286e+05	3.00000000e+02	2.39700632e+03	6.25751407e+06	1.85217192e+00	1.81632474e-05	1.03699234e-03	9.18481747e-13	1.04204556e-02
5.82535386e-01	1.29320011e-01	3.80859396e-03	2.13894845e+00	2.47536169e+05	3.00000000e+02	2.38403189e+03	6.25356187e+06	1.84590207e+00	1.81628137e-05	9.94273789e-04	9.10203368e-13	9.96804601e-03
5.81130147e-01	1.29320011e-01	3.80859396e-03	2.12623045e+00	2.45684175e+05	3.00000000e+02	2.36342650e+03	6.21697127e+06	1.83236818e+00	1.81634805e-05	9.59639053e-04	8.83216356e-13	9.59029602e-03
5.79728007e-01	1.29320011e-01	3.80859396e-03	2.10060896e+00	2.41987418e+05	3.00000000e+02	2.33609880e+03	6.14076677e+06	1.81060669e+00	1.81647609e-05	9.31538791e-04	8.37078663e-13	9.26760564e-03
5.78328996e-01	1.29320011e-01	3.80859396e-03	2.05654705e+00	2.35722497e+05	3.00000000e+02	2.30527095e+03	6.01382056e+06	1.77951744e+00	1.81661820e-05	9.08390388e-04	7.67553662e-13	8.99819448e-03
5.76933116e-01	1.29320011e-01	3.80859396e-03	1.99516195e+00	2.27108919e+05	3.00000000e+02	2.28195301e+03	5.83796436e+06	1.74357869e+00	1.81692278e-05	8.88956403e-04	6.87441235e-13	8.79274365e-03
5.75540334e-01	1.29320011e-01	3.80859396e-03	1.92501667e+00	2.17565529e+05	3.00000000e+02	2.27540100e+03	5.65877975e+06	1.70995480e+00	1.81717681e-05	8.71295262e-04	6.14223811e-13	8.61181875e-03
5.74150622e-01	1.29320011e-01	3.80859396e-03	1.86072807e+00	2.09064440e+05	3.00000000e+02	2.28613697e+03	5.51214830e+06	1.68489896e+00	1.81741586e-05	8.52705973e-04	5.60280407e-13	8.43186289e-03
5.72763980e-01	1.29320011e-01	3.80859396e-03	1.81278567e+00	2.02873891e+05	3.00000000e+02	2.30987024e+03	5.41430006e+06	1.67143727e+00	1.81765952e-05	8.30834096e-04	5.27117563e-13	8.23538072e-03
5.71380436e-01	1.29320011e-01	3.80859396e-03	1.78779632e+00	1.99765310e+05	3.00000000e+02	2.34192661e+03	5.37593090e+06	1.67112373e+00	1.81791114e-05	8.04349079e-04	5.14036783e-13	8.01131856e-03
5.69999934e-01	1.29320011e-01	3.80859396e-03	1.78585870e+00	1.99681807e+05	3.00000000e+02	2.37594227e+03	5.39279504e+06	1.68207038e+00	1.81816345e-05	7.72546828e-04	5.15736874e-13	7.75121737e-03
5.68622500e-01	1.29320011e-01	3.80859396e-03	1.80212507e+00	2.01942796e+05	3.00000000e+02	2.40692947e+03	5.44806340e+06	1.70047574e+00	1.81839950e-05	7.35060613e-04	5.25205366e-13	7.44858830e-03
5.89608640e-01	1.29320011e-01	4.39453149e-03	2.04735000e+00	2.34540938e+05	3.00000000e+02	2.42972004e+03	6.00245016e+06	1.82305248e+00	1.81639622e-05	9.21251816e-04	5.85982744e-13	9.25983084e-03
5.88187665e-01	1.29320011e-01	4.39453149e-03	2.08058509e+00	2.39044990e+05	3.00000000e+02	2.43705395e+03	6.07252970e+06	1.83989676e+00	1.81705241e-05	8.62115519e-04	5.97255643e-13	8.73679988e-03
5.86769879e-01	1.29320011e-01	4.39453149e-03	2.10496992e+00	2.42398296e+05	3.00000000e+02	2.44633610e+03	6.12761059e+06	1.85355569e+00	1.81765296e-05	8.07373902e-04	6.16844067e-13	8.26525228e-03
5.85355252e-01	1.29320011e-01	4.39453149e-03	2.11969321e+00	2.44498349e+05	3.00000000e+02	2.44983945e+03	6.16915917e+06	1.86092457e+00	1.81807645e-05	7.59320740e-04	6.30432360e-13	7.84443094e-03
5.83943754e-01	1.29320011e-01	4.39453148e-03	2.12699655e+00	2.45560678e+05	3.00000000e+02	2.44741442e+03	6.19304661e+06	1.86293458e+00	1.81834021e-05	7.18926528e-04	6.35861985e-13	7.50006521e-03
5.82535386e-01	1.29320011e-01	4.39453148e-03	2.12774590e+00	2.45643985e+05	3.00000000e+02	2.43743389e+03	6.19589698e+06	1.85934427e+00	1.81845304e-05	6.85787115e-04	6.32015583e-13	7.23953301e-03
5.81130147e-01	1.29320011e-01	4.39453148e-03	2.11950758e+00	2.44366619e+05	3.00000000e+02	2.41804230e+03	6.16529160e+06	1.84828567e+00	1.81851100e-05	6.58919213e-04	6.13789060e-13	7.02276154e-03
5.79728007e-01	1.29320011e-01	4.39453148e-03	2.09790760e+00	2.41166925e+05	3.00000000e+02	2.39093571e+03	6.09388348e+06	1.82847532e+00	1.81854319e-05	6.37437915e-04	5.79881747e-13	6.83818505e-03
5.78328996e-01	1.29320011e-01	4.39453149e-03	2.05832186e+00	2.35485163e+05	3.00000000e+02	2.36194426e+03	5.97574245e+06	1.80011211e+00	1.81855947e-05	6.20675769e-04	5.32849973e-13	6.68434536e-03
5.76933116e-01	1.29320011e-01	4.39453148e-03	2.00240699e+00	2.27678927e+05	3.00000000e+02	2.33969934e+03	5.82345063e+06	1.76710530e+00	1.81856726e-05	6.08023635e-04	4.82087104e-13	6.55875005e-03
5.75540334e-01	1.29320011e-01	4.39453148e-03	1.93887127e+00	2.19063988e+05	3.00000000e+02	2.33133125e+03	5.66797836e+06	1.73572814e+00	1.81857147e-05	5.97854488e-04	4.37917068e-13	6.44797880e-03
5.74150622e-01	1.29320011e-01	4.39453149e-03	1.88001307e+00	2.11301910e+05	3.00000000e+02	2.33782422e+03	5.54015358e+06	1.71155649e+00	1.81857293e-05	5.87401966e-04	4.06012064e-13	6.32573027e-03
5.72763980e-01	1.29320011e-01	4.39453149e-03	1.83538469e+00	2.05558456e+05	3.00000000e+02	2.35594016e+03	5.45552365e+06	1.69766531e+00	1.81856656e-05	5.73759449e-04	3.85680702e-13	6.16339096e-03
5.71380437e-01	1.29320011e-01	4.39453149e-03	1.81187672e+00	2.02629357e+05	3.00000000e+02	2.38043031e+03	5.42268376e+06	1.69552739e+00	1.81853995e-05	5.55035145e-04	3.74580519e-13	5.94409526e-03
5.69999933e-01	1.29320011e-01	4.39453148e-03	1.81032186e+00	2.02537861e+05	3.00000000e+02	2.40507251e+03	5.43668286e+06	1.70361150e+00	1.81847368e-05	5.30496408e-04	3.68559552e-13	5.66734815e-03
5.88187664e-01	1.29320011e-01	4.98046889e-03	2.06954312e+00	2.36939135e+05	3.00000000e+02	2.47118402e+03	5.99908885e+06	1.84631927e+00	1.81852207e-05	5.83629133e-04	4.01309957e-13	6.44524868e-03
5.86769879e-01	1.29320011e-01	4.98046889e-03	2.08899921e+00	2.39716822e+05	3.00000000e+02	2.47699431e+03	6.06280342e+06	1.85721580e+00	1.81846468e-05	5.42163407e-04	4.09052402e-13	6.01353402e-03
5.85355252e-01	1.29320011e-01	4.98046889e-03	2.10257279e+00	2.41741810e+05	3.00000000e+02	2.47946256e+03	6.11722738e+06	1.86428598e+00	1.81834949e-05	5.06277468e-04	4.15256937e-13	5.61746697e-03
5.83943754e-01	1.29320011e-01	4.98046889e-03	2.11142425e+00	2.43097878e+05	3.00000000e+02	2.47491704e+03	6.15754899e+06	1.86664458e+00	1.81820161e-05	4.76169843e-04	4.16524904e-13	5.27967859e-03
5.82535386e-01	1.29320011e-01	4.98046889e-03	2.11508691e+00	2.43608389e+05	3.00000000e+02	2.46072194e+03	6.17086820e+06	1.86301617e+00	1.81808570e-05	4.51248196e-04	4.09071361e-13	5.01854677e-03
5.81130147e-01	1.29320011e-01	4.98046889e-03	2.11017767e+00	2.42758488e+05	3.00000000e+02	2.43960060e+03	6.14045876e+06	1.85259551e+00	1.81833487e-05	4.30809891e-04	3.92936380e-13	4.84794805e-03
5.79728007e-01	1.29320011e-01	4.98046889e-03	2.09129278e+00	2.39912019e+05	3.00000000e+02	2.41391706e+03	6.06889724e+06	1.83431286e+00	1.81857316e-05	4.14501186e-04	3.68604514e-13	4.71601796e-03
5.78328997e-01	1.29320011e-01	4.98046889e-03	2.05576644e+00	2.34785965e+05	3.00000000e+02	2.38701505e+03	5.95650486e+06	1.80832432e+00	1.81875307e-05	4.02197410e-04	3.37683056e-13	4.61106548e-03
5.76933116e-01	1.29320011e-01	4.98046889e-03	2.00713934e+00	2.27960920e+05	3.00000000e+02	2.36599009e+03	5.81771447e+06	1.77879941e+00	1.81887914e-05	3.93703088e-04	3.06164221e-13	4.53390881e-03
5.75540334e-01	1.29320011e-01	4.98046889e-03	1.95327165e+00	2.20611303e+05	3.00000000e+02	2.35639965e+03	5.67980311e+06	1.75112254e+00	1.81896715e-05	3.87881699e-04	2.79666502e-13	4.47799532e-03
5.74150622e-01	1.29320011e-01	4.98046889e-03	1.90319259e+00	2.13972717e+05	3.00000000e+02	2.35994669e+03	5.56693326e+06	1.72975300e+00	1.81904721e-05	3.82452145e-04	2.60985896e-13	4.42658034e-03
5.72763980e-01	1.29320011e-01	4.98046889e-03	1.86403192e+00	2.08928175e+05	3.00000000e+02	2.37554304e+03	5.49150899e+06	1.71740956e+00	1.81915558e-05	3.74673286e-04	2.49593729e-13	4.35701758e-03
5.71380436e-01	1.29320011e-01	4.98046889e-03	1.84195773e+00	2.06205602e+05	3.00000000e+02	2.39941131e+03	5.46160925e+06	1.71561039e+00	1.81932006e-05	3.62416445e-04	2.43619785e-13	4.24880493e-03
5.69999934e-01	1.29320011e-01	4.98046889e-03	1.83877199e+00	2.05934503e+05	3.00000000e+02	2.42397045e+03	5.47112246e+06	1.72265817e+00	1.81955040e-05	3.44773964e-04	2.39977685e-13	4.08864408e-03
5.88187664e-01	1.29320011e-01	5.56640653e-03	2.05816645e+00	2.34579582e+05	3.00000000e+02	2.46305322e+03	5.90640412e+06	1.83780670e+00	1.81891712e-05	3.76775475e-04	2.36770848e-13	4.57981919e-03
5.86769879e-01	1.29320011e-01	5.56640653e-03	2.07438182e+00	2.37008836e+05	3.00000000e+02	2.47682319e+03	5.96619392e+06	1.84979059e+00	1.81930235e-05	3.47619166e-04	2.42371668e-13	4.33426142e-03
5.85355252e-01	1.29320011e-01	5.56640653e-03	2.08820424e+00	2.39135113e+05	3.00000000e+02	2.48777853e+03	6.02248284e+06	1.85972262e+00	1.81961609e-05	3.22722695e-04	2.47990798e-13	4.11279177e-03
5.83943754e-01	1.29320011e-01	5.56640653e-03	2.09956902e+00	2.40863509e+05	3.00000000e+02	2.49199146e+03	6.06629698e+06	1.86609440e+00	1.81986989e-05	3.01801050e-04	2.51613467e-13	3.91434465e-03
5.82535386e-01	1.29320011e-01	5.56640653e-03	2.10557535e+00	2.41734195e+05	3.00000000e+02	2.48569866e+03	6.08475593e+06	1.86618729e+00	1.82007801e-05	2.84245395e-04	2.50096824e-13	3.73425667e-03
5.81130147e-01	1.29320011e-01	5.56640653e-03	2.10149348e+00	2.41077812e+05	3.00000000e+02	2.46860968e+03	6.06503866e+06	1.85778301e+00	1.82024919e-05	2.69566211e-04	2.41169997e-13	3.57139070e-03
5.79728007e-01	1.29320011e-01	5.56640653e-03	2.08345005e+00	2.38409128e+05	3.00000000e+02	2.44519051e+03	6.00223526e+06	1.84085718e+00	1.82038563e-05	2.57722179e-04	2.25614897e-13	3.43009714e-03
5.78328997e-01	1.29320011e-01	5.56640653e-03	2.05142335e+00	2.33805818e+05	3.00000000e+02	2.42194909e+03	5.90243677e+06	1.81784988e+00	1.82048764e-05	2.48894003e-04	2.06936681e-13	3.31639733e-03
5.76933116e-01	1.29320011e-01	5.56640653e-03	2.01068231e+00	2.28084559e+05	3.00000000e+02	2.40427791e+03	5.78557285e+06	1.79306199e+00	1.82055731e-05	2.43053214e-04	1.89360846e-13	3.23393906e-03
5.75540334e-01	1.29320011e-01	5.56640653e-03	1.96828673e+00	2.22270928e+05	3.00000000e+02	2.39458387e+03	5.67436904e+06	1.77043263e+00	1.82060361e-05	2.39427670e-04	1.75397844e-13	3.17651693e-03
5.74150622e-01	1.29320011e-01	5.56640653e-03	1.92968242e+00	2.17101476e+05	3.00000000e+02	2.39299168e+03	5.58291694e+06	1.75236352e+00	1.82064347e-05	2.36381990e-04	1.65409761e-13	3.12564856e-03
5.72763979e-01	1.29320011e-01	5.56640653e-03	1.89856891e+00	2.13038368e+05	3.00000000e+02	2.39954777e+03	5.51837688e+06	1.74050634e+00	1.82069781e-05	2.31824556e-04	1.58344808e-13	3.05502479e-03
5.71380436e-01	1.29320011e-01	5.56640653e-03	1.87885765e+00	2.10539607e+05	3.00000000e+02	2.41270164e+03	5.48516757e+06	1.73610517e+00	1.82078352e-05	2.23942768e-04	1.52812729e-13	2.93913037e-03
5.69999934e-01	1.29320011e-01	5.56640653e-03	1.87288087e+00	2.09826406e+05	3.00000000e+02	2.42755724e+03	5.48027938e+06	1.73855401e+00	1.82090474e-05	2.11852009e-04	1.47437480e-13	2.76206302e-03
5.88187664e-01	1.29320011e-01	6.15234417e-03	2.04726620e+00	2.32337041e+05	3.00000000e+02	2.46054064e+03	5.79802401e+06	1.83038987e+00	1.82051567e-05	2.33374073e-04	1.38589557e-13	3.31944306e-03
5.86769879e-01	1.29320011e-01	6.15234417e-03	2.06154371e+00	2.34557407e+05	3.00000000e+02	2.47737154e+03	5.86163716e+06	1.84284561e+00	1.82070041e-05	2.14266787e-04	1.42163435e-13	3.08441368e-03
5.85355252e-01	1.29320011e-01	6.15234417e-03	2.07621573e+00	2.36837680e+05	3.00000000e+02	2.49047628e+03	5.92599232e+06	1.85412244e+00	1.82085193e-05	1.97905588e-04	1.46115487e-13	2.86078612e-03