VARIABLES ="X" "Y" "Z" "rho" "press" "temp" "tau_wall" "qdot" "yplus" "muLam" "ZMean" "ZVar" "CMean" 
Zone T ="wall" I = 8632 , F = point
3.98084551e-01	1.29320011e-01	4.31332365e-04	1.24921214e+00	1.32213563e+05	3.00000000e+02	2.05421474e+03	4.25427814e+06	1.31533200e+00	1.80817820e-05	5.36730780e-59	6.44560293e-68	-2.52174936e-59
3.98763859e-01	1.29320011e-01	3.76781197e-04	1.25808907e+00	1.33295532e+05	3.00000000e+02	2.05320162e+03	4.27923638e+06	1.31967157e+00	1.80817820e-05	1.27882195e-58	2.62429263e-67	-5.88465812e-59
3.98990275e-01	1.29320011e-01	8.87797211e-03	1.26244686e+00	1.33834490e+05	3.00000000e+02	2.05340342e+03	4.29272364e+06	1.32202010e+00	1.80817820e-05	1.88577840e-49	2.42523718e-57	6.89436908e-50
3.98157331e-01	1.29320011e-01	8.89711205e-03	1.24985982e+00	1.32291815e+05	3.00000000e+02	2.05411149e+03	4.25598935e+06	1.31563987e+00	1.80817820e-05	1.05695853e-50	1.12636787e-58	2.08416346e-51
3.98157350e-01	1.29320011e-01	7.93788339e-03	1.24986410e+00	1.32292354e+05	3.00000000e+02	2.05412279e+03	4.25600433e+06	1.31564574e+00	1.80817820e-05	9.67834917e-51	1.04205275e-58	9.00815381e-52
3.98156469e-01	1.29320011e-01	6.97306857e-03	1.24986817e+00	1.32292986e+05	3.00000000e+02	2.05415016e+03	4.25603988e+06	1.31565665e+00	1.80817820e-05	3.38791937e-51	3.84286398e-59	1.94649504e-52
3.98147231e-01	1.29320011e-01	6.00566947e-03	1.24980448e+00	1.32285449e+05	3.00000000e+02	2.05417811e+03	4.25589966e+06	1.31563208e+00	1.80817820e-05	2.71893708e-52	2.67843359e-60	-2.55099429e-53
3.98128521e-01	1.29320011e-01	5.04379655e-03	1.24964546e+00	1.32266406e+05	3.00000000e+02	2.05421720e+03	4.25550951e+06	1.31556089e+00	1.80817820e-05	1.60236265e-53	1.19545685e-61	-4.28574603e-54
3.98108284e-01	1.29320011e-01	4.09326380e-03	1.24945275e+00	1.32243377e+05	3.00000000e+02	2.05428254e+03	4.25504519e+06	1.31548037e+00	1.80817820e-05	1.01593965e-54	4.99630122e-63	-4.16897154e-55
3.98094881e-01	1.29320011e-01	3.15140987e-03	1.24932253e+00	1.32227845e+05	3.00000000e+02	2.05433970e+03	4.25473646e+06	1.31543012e+00	1.80817820e-05	7.31210325e-56	2.28714526e-64	-3.54905138e-56
3.98082872e-01	1.29320011e-01	2.22717910e-03	1.24920316e+00	1.32213346e+05	3.00000000e+02	2.05435091e+03	4.25440755e+06	1.31537086e+00	1.80817820e-05	5.80475225e-57	1.22948791e-65	-2.93479311e-57
3.98072531e-01	1.29320011e-01	1.32236159e-03	1.24908318e+00	1.32198357e+05	3.00000000e+02	2.05429346e+03	4.25400337e+06	1.31528930e+00	1.80817820e-05	4.99002829e-58	7.69602831e-67	-2.47379282e-58
3.98740624e-01	1.29320011e-01	1.15437550e-03	1.25761321e+00	1.33238052e+05	3.00000000e+02	2.05334907e+03	4.27799844e+06	1.31946936e+00	1.80817820e-05	1.02397842e-57	2.94839587e-66	-4.79483557e-58
3.98992297e-01	1.29320011e-01	7.87554372e-03	1.26248498e+00	1.33839092e+05	3.00000000e+02	2.05341220e+03	4.29282152e+06	1.32204289e+00	1.80817820e-05	1.90287533e-49	2.49931791e-57	4.75724803e-50
3.98989360e-01	1.29320011e-01	6.84723543e-03	1.26242053e+00	1.33831169e+05	3.00000000e+02	2.05343787e+03	4.29263115e+06	1.32201741e+00	1.80817820e-05	6.80900855e-50	9.90931959e-58	1.54674954e-50
3.98956795e-01	1.29320011e-01	5.80774781e-03	1.26178417e+00	1.33752670e+05	3.00000000e+02	2.05347111e+03	4.29070284e+06	1.32169487e+00	1.80817820e-05	3.54248844e-51	5.03673522e-59	3.92824699e-52
3.98894045e-01	1.29320011e-01	4.79219082e-03	1.26055478e+00	1.33600300e+05	3.00000000e+02	2.05333384e+03	4.28684704e+06	1.32100667e+00	1.80817820e-05	1.13852353e-52	1.52064337e-60	-2.62752589e-54
3.98834125e-01	1.29320011e-01	3.82109993e-03	1.25939584e+00	1.33457002e+05	3.00000000e+02	2.05329659e+03	4.28326458e+06	1.32038730e+00	1.80817820e-05	3.93355430e-54	4.28931418e-62	-7.43687932e-55
3.98803442e-01	1.29320011e-01	2.87505281e-03	1.25880487e+00	1.33383756e+05	3.00000000e+02	2.05323812e+03	4.28140492e+06	1.32005867e+00	1.80817820e-05	1.82237475e-55	1.33810813e-63	-6.33626664e-56
3.98772866e-01	1.29320011e-01	1.98281551e-03	1.25822896e+00	1.33311936e+05	3.00000000e+02	2.05306849e+03	4.27951359e+06	1.31970213e+00	1.80817820e-05	1.21265089e-56	5.49461393e-65	-5.32686907e-57
3.99830293e-01	1.29320011e-01	6.70386293e-03	1.28491276e+00	1.36640637e+05	3.00000000e+02	2.05677932e+03	4.36555209e+06	1.33482721e+00	1.80817820e-05	1.54436022e-48	2.65799701e-56	5.55592602e-49
3.99760412e-01	1.29320011e-01	5.56079445e-03	1.28251397e+00	1.36338142e+05	3.00000000e+02	2.05606156e+03	4.35740379e+06	1.33334785e+00	1.80817820e-05	5.58558383e-50	9.80353787e-58	1.40820905e-50
3.99626007e-01	1.29320011e-01	4.48645354e-03	1.27817311e+00	1.35795506e+05	3.00000000e+02	2.05582628e+03	4.34340195e+06	1.33101335e+00	1.80817820e-05	1.13258597e-51	2.08139865e-59	1.74217656e-52
3.99366003e-01	1.29320011e-01	3.20609185e-04	1.27057577e+00	1.34842193e+05	3.00000000e+02	2.05410467e+03	4.31804330e+06	1.32649598e+00	1.80817820e-05	3.25489975e-58	1.50829106e-66	-1.35905085e-58
3.99813265e-01	1.29320011e-01	8.86223657e-03	1.28432191e+00	1.36567960e+05	3.00000000e+02	2.05692554e+03	4.36386234e+06	1.33456766e+00	1.80817820e-05	3.03792074e-48	4.71354489e-56	1.61141304e-48
3.99358844e-01	1.29320011e-01	9.82319825e-04	1.27011221e+00	1.34787411e+05	3.00000000e+02	2.05438536e+03	4.31707378e+06	1.32634461e+00	1.80817820e-05	2.58647601e-57	1.92647038e-65	-9.43600198e-58
3.99825602e-01	1.29320011e-01	7.81824577e-03	1.28476836e+00	1.36624242e+05	3.00000000e+02	2.05697497e+03	4.36537382e+06	1.33481564e+00	1.80817820e-05	3.66921273e-48	5.66849297e-56	1.42967961e-48
3.99448470e-01	1.29320011e-01	1.71356297e-03	1.27287759e+00	1.35137424e+05	3.00000000e+02	2.05551595e+03	4.32686641e+06	1.32815300e+00	1.80817820e-05	4.36657343e-56	4.99778025e-64	-1.03282803e-56
4.00701928e-01	1.29320011e-01	6.54153445e-03	1.32233822e+00	1.41401734e+05	3.00000000e+02	2.06993576e+03	4.49581455e+06	1.35845135e+00	1.80817820e-05	3.38216798e-47	6.79166619e-55	1.65107678e-47
4.00625823e-01	1.29320011e-01	8.85650859e-03	1.31818239e+00	1.40858521e+05	3.00000000e+02	2.06720783e+03	4.47928300e+06	1.35542093e+00	1.80817820e-05	4.09832593e-47	7.87865252e-55	2.86308118e-47
4.00659207e-01	1.29320011e-01	7.78960319e-03	1.32006880e+00	1.41100956e+05	3.00000000e+02	2.06803530e+03	4.48610825e+06	1.35666189e+00	1.80817820e-05	5.91936847e-47	1.08712612e-54	3.16540336e-47
4.01426319e-01	1.29320011e-01	8.86874864e-03	1.36415571e+00	1.46767967e+05	3.00000000e+02	2.08717145e+03	4.64045616e+06	1.38549640e+00	1.80817820e-05	4.72339802e-46	1.13589490e-53	3.96159715e-46
4.01483184e-01	1.29320011e-01	7.83573494e-03	1.36799004e+00	1.47268492e+05	3.00000000e+02	2.08946955e+03	4.65464660e+06	1.38820581e+00	1.80817820e-05	6.23327773e-46	1.47177483e-53	4.34912296e-46
3.99522936e-01	1.29320011e-01	3.51580643e-03	1.27499993e+00	1.35396873e+05	3.00000000e+02	2.05513173e+03	4.33276699e+06	1.32913554e+00	1.80817820e-05	2.75108575e-53	4.90784731e-61	1.18280108e-54
3.99887749e-01	1.29320011e-01	2.64434756e-04	1.28585568e+00	1.36756561e+05	3.00000000e+02	2.05714982e+03	4.36823556e+06	1.33543714e+00	1.80817820e-05	8.95559974e-58	8.03078413e-66	-3.05724309e-58
3.99891365e-01	1.29320011e-01	8.00501255e-04	1.28514134e+00	1.36672249e+05	3.00000000e+02	2.05757866e+03	4.36680525e+06	1.33520528e+00	1.80817820e-05	6.85485001e-57	9.66049448e-65	-1.59832643e-57
4.00149515e-01	1.29320011e-01	3.21801778e-03	1.29555148e+00	1.37984002e+05	3.00000000e+02	2.06026768e+03	4.40163339e+06	1.34147790e+00	1.80817820e-05	2.15218135e-52	5.21413511e-60	4.41720195e-53
3.99502698e-01	1.29320011e-01	2.55761362e-03	1.27436577e+00	1.35319871e+05	3.00000000e+02	2.05531213e+03	4.33109617e+06	1.32886332e+00	1.80817820e-05	9.31667437e-55	1.45824105e-62	-7.50543816e-56
4.00565142e-01	1.29320011e-01	5.23499568e-03	1.31550054e+00	1.40525843e+05	3.00000000e+02	2.06811875e+03	4.47155504e+06	1.35433968e+00	1.80817820e-05	8.18453296e-49	1.71046651e-56	3.08367415e-49
4.00295727e-01	1.29320011e-01	4.10975821e-03	1.30197145e+00	1.38791842e+05	3.00000000e+02	2.06164563e+03	4.42264542e+06	1.34524723e+00	1.80817820e-05	9.42291287e-51	2.27960775e-58	2.78012328e-51
4.00333835e-01	1.29320011e-01	2.19278185e-04	1.30284114e+00	1.38904043e+05	3.00000000e+02	2.06200168e+03	4.42594404e+06	1.34581269e+00	1.80817820e-05	2.46113696e-57	3.19438325e-65	-6.75160697e-58
4.00713803e-01	1.29320011e-01	1.91643173e-04	1.32055078e+00	1.41159259e+05	3.00000000e+02	2.06802559e+03	4.48724123e+06	1.35690640e+00	1.80817820e-05	6.23729294e-57	9.86293065e-65	-1.44732264e-57
4.01041425e-01	1.29320011e-01	1.74785554e-04	1.33842046e+00	1.43448711e+05	3.00000000e+02	2.07480741e+03	4.54973992e+06	1.36829445e+00	1.80817820e-05	1.40632306e-56	2.48803128e-64	-2.93902006e-57
4.01326875e-01	1.29320011e-01	1.62980309e-04	1.35595242e+00	1.45708264e+05	3.00000000e+02	2.08220361e+03	4.61164020e+06	1.37967950e+00	1.80817820e-05	2.82874797e-56	5.38068601e-64	-5.57725251e-57
4.01577240e-01	1.29320011e-01	1.53746752e-04	1.37271309e+00	1.47881310e+05	3.00000000e+02	2.09012606e+03	4.67142004e+06	1.39081864e+00	1.80817820e-05	5.16830564e-56	1.03746325e-63	-9.89274044e-57
4.01798611e-01	1.29320011e-01	1.46214405e-04	1.38843263e+00	1.49929289e+05	3.00000000e+02	2.09806444e+03	4.72775995e+06	1.40141271e+00	1.80817820e-05	8.78283900e-56	1.84480946e-63	-1.65964321e-56
4.01802280e-01	1.29320011e-01	4.30387848e-04	1.38726424e+00	1.49743604e+05	3.00000000e+02	2.09379546e+03	4.71828540e+06	1.39939945e+00	1.80817820e-05	4.58938707e-55	1.02193641e-62	-4.61092890e-56
4.01825407e-01	1.29320011e-01	7.14308794e-04	1.38920290e+00	1.50011440e+05	3.00000000e+02	2.09589202e+03	4.72760438e+06	1.40107323e+00	1.80817820e-05	2.66662516e-54	5.85207898e-62	-6.78860622e-56
4.01864389e-01	1.29320011e-01	9.96278638e-04	1.39188011e+00	1.50367726e+05	3.00000000e+02	2.09932664e+03	4.73823599e+06	1.40357724e+00	1.80817820e-05	1.36244637e-53	2.77188630e-61	5.40948959e-55
4.01916858e-01	1.29320011e-01	1.27666037e-03	1.39552830e+00	1.50859333e+05	3.00000000e+02	2.10193824e+03	4.75367505e+06	1.40628208e+00	1.80817820e-05	3.90957708e-53	9.39152694e-61	3.18508701e-54
4.01982431e-01	1.29320011e-01	1.55635410e-03	1.40021482e+00	1.51477248e+05	3.00000000e+02	2.10590166e+03	4.77118818e+06	1.40997670e+00	1.80817820e-05	1.37443166e-52	4.81764909e-60	2.56099227e-53
4.00331847e-01	1.29320011e-01	6.51792460e-04	1.30142182e+00	1.38727632e+05	3.00000000e+02	2.06178246e+03	4.42169351e+06	1.34500787e+00	1.80817820e-05	1.69533377e-56	3.09233298e-64	-2.62894606e-57
4.00697026e-01	1.29320011e-01	5.69093605e-04	1.31815244e+00	1.40850189e+05	3.00000000e+02	2.06655903e+03	4.47842443e+06	1.35519282e+00	1.80817820e-05	3.92578682e-56	7.97734333e-64	-4.54896261e-57
4.01015860e-01	1.29320011e-01	5.20769240e-04	1.33529718e+00	1.43037758e+05	3.00000000e+02	2.07216187e+03	4.53715257e+06	1.36582538e+00	1.80817820e-05	8.26781943e-56	1.75613517e-63	-8.22213879e-57
4.01302360e-01	1.29320011e-01	4.85786490e-04	1.35268650e+00	1.45269838e+05	3.00000000e+02	2.07865344e+03	4.59737492e+06	1.37684174e+00	1.80817820e-05	1.57773854e-55	3.42156471e-63	-1.49647108e-56
4.01562979e-01	1.29320011e-01	4.56683981e-04	1.37006604e+00	1.47512730e+05	3.00000000e+02	2.08579843e+03	4.65798658e+06	1.38803816e+00	1.80817820e-05	2.77645643e-55	6.10342981e-63	-2.66980788e-56
4.01576131e-01	1.29320011e-01	7.57570889e-04	1.37140179e+00	1.47696365e+05	3.00000000e+02	2.08767503e+03	4.66439433e+06	1.38933854e+00	1.80817820e-05	1.78242188e-54	3.89870951e-62	-2.80829287e-56
4.01607475e-01	1.29320011e-01	1.05460224e-03	1.37355823e+00	1.47980587e+05	3.00000000e+02	2.08947606e+03	4.67274144e+06	1.39103062e+00	1.80817820e-05	1.03828564e-53	2.03613228e-61	5.56121980e-55
4.01649183e-01	1.29320011e-01	1.35152728e-03	1.37624526e+00	1.48347056e+05	3.00000000e+02	2.09296352e+03	4.68508451e+06	1.39355142e+00	1.80817820e-05	2.78819770e-53	6.11238051e-61	2.33908198e-54
4.01700503e-01	1.29320011e-01	1.65466373e-03	1.37972316e+00	1.48801336e+05	3.00000000e+02	2.09446350e+03	4.69777873e+06	1.39581155e+00	1.80817820e-05	8.23483736e-53	2.61958114e-60	1.42118484e-53
4.01311667e-01	1.29320011e-01	8.02407610e-04	1.35379803e+00	1.45416454e+05	3.00000000e+02	2.07942199e+03	4.60181450e+06	1.37766181e+00	1.80817820e-05	1.13129674e-54	2.48933298e-62	-9.00097791e-57
4.01339950e-01	1.29320011e-01	1.10971827e-03	1.35572104e+00	1.45671280e+05	3.00000000e+02	2.08143641e+03	4.60966821e+06	1.37930755e+00	1.80817820e-05	7.79217995e-54	1.50329286e-61	5.29157889e-55
4.01369472e-01	1.29320011e-01	1.41848190e-03	1.35751909e+00	1.45917815e+05	3.00000000e+02	2.08394083e+03	4.61833547e+06	1.38105195e+00	1.80817820e-05	1.95588763e-53	4.02401457e-61	1.75780464e-54
4.01398105e-01	1.29320011e-01	1.74520517e-03	1.35927819e+00	1.46152990e+05	3.00000000e+02	2.08535813e+03	4.62581569e+06	1.38241633e+00	1.80817820e-05	4.66747105e-53	1.31979410e-60	7.27295445e-54
4.01445442e-01	1.29320011e-01	2.09890241e-03	1.36233962e+00	1.46543832e+05	3.00000000e+02	2.08591261e+03	4.63580193e+06	1.38415615e+00	1.80817820e-05	3.43820667e-52	1.26936173e-59	1.00852110e-52
4.01528179e-01	1.29320011e-01	2.47246120e-03	1.36793755e+00	1.47264201e+05	3.00000000e+02	2.08793015e+03	4.65486607e+06	1.38766767e+00	1.80817820e-05	5.05259836e-51	1.87658067e-58	1.89378713e-51
3.99999583e-01	1.29320011e-01	1.36280784e-03	1.28909712e+00	1.37174558e+05	3.00000000e+02	2.05885147e+03	4.38076450e+06	1.33767218e+00	1.80817820e-05	1.19065884e-55	2.36267894e-63	-9.04585003e-57
4.00408432e-01	1.29320011e-01	1.04626203e-03	1.30479983e+00	1.39152388e+05	3.00000000e+02	2.06200251e+03	4.43262201e+06	1.34682418e+00	1.80817820e-05	2.11481367e-55	4.63148177e-63	-6.21889016e-57
4.00734948e-01	1.29320011e-01	9.14404602e-04	1.32035027e+00	1.41126132e+05	3.00000000e+02	2.06648661e+03	4.48528811e+06	1.35629839e+00	1.80817820e-05	3.81611961e-55	8.56052960e-63	-3.50923320e-57
4.01031568e-01	1.29320011e-01	8.51016215e-04	1.33666741e+00	1.43211592e+05	3.00000000e+02	2.07228169e+03	4.54161668e+06	1.36656548e+00	1.80817820e-05	6.77526537e-55	1.50854562e-62	-2.93245241e-57
4.01068564e-01	1.29320011e-01	1.15715748e-03	1.33905942e+00	1.43524698e+05	3.00000000e+02	2.07436114e+03	4.55097609e+06	1.36847380e+00	1.80817820e-05	5.73642916e-54	1.10885059e-61	4.66710915e-55
4.01083480e-01	1.29320011e-01	1.46543269e-03	1.33998023e+00	1.43654338e+05	3.00000000e+02	2.07620481e+03	4.55606992e+06	1.36955237e+00	1.80817820e-05	1.31649654e-53	2.63456823e-61	1.28675828e-54
4.01069108e-01	1.29320011e-01	1.81262047e-03	1.33918460e+00	1.43561456e+05	3.00000000e+02	2.07678439e+03	4.55482061e+06	1.36933681e+00	1.80817820e-05	2.43253482e-53	6.00400617e-61	3.32614457e-54
4.01079290e-01	1.29320011e-01	2.22562523e-03	1.33975840e+00	1.43628684e+05	3.00000000e+02	2.07585047e+03	4.55576188e+06	1.36932212e+00	1.80817820e-05	1.56403215e-52	5.28353685e-60	4.30383841e-53
4.01149426e-01	1.29320011e-01	2.69372971e-03	1.34400412e+00	1.44170471e+05	3.00000000e+02	2.07729481e+03	4.56997783e+06	1.37196722e+00	1.80817820e-05	2.76345930e-51	9.76572330e-59	1.00756658e-51
4.00560322e-01	1.29320011e-01	1.34204917e-03	1.31206971e+00	1.40075521e+05	3.00000000e+02	2.06461342e+03	4.45746559e+06	1.35142577e+00	1.80817820e-05	3.66571236e-54	7.33264048e-62	3.69018972e-55
4.00809254e-01	1.29320011e-01	1.19560533e-03	1.32454946e+00	1.41663933e+05	3.00000000e+02	2.06856344e+03	4.50010103e+06	1.35913591e+00	1.80817820e-05	4.22985748e-54	8.31241787e-62	3.91033074e-55
4.00806019e-01	1.29320011e-01	1.47408235e-03	1.32456930e+00	1.41674616e+05	3.00000000e+02	2.06973856e+03	4.50152673e+06	1.35953203e+00	1.80817820e-05	8.23050788e-54	1.65825395e-61	8.64580985e-55
4.00289741e-01	1.29320011e-01	1.72511654e-03	1.30056795e+00	1.38619073e+05	3.00000000e+02	2.06177396e+03	4.41871981e+06	1.34456380e+00	1.80817820e-05	4.55503589e-54	9.22318789e-62	4.85464159e-55
4.00703538e-01	1.29320011e-01	1.82775218e-03	1.31959593e+00	1.41047305e+05	3.00000000e+02	2.06887677e+03	4.48558941e+06	1.35669474e+00	1.80817820e-05	1.11506497e-53	2.39404841e-61	1.30532300e-54
4.00696250e-01	1.29320011e-01	2.94776482e-03	1.31941743e+00	1.41017929e+05	3.00000000e+02	2.06798329e+03	4.48386806e+06	1.35631008e+00	1.80817820e-05	1.12602154e-51	3.67171878e-59	3.75937419e-52
4.00646938e-01	1.29320011e-01	2.33058729e-03	1.31676978e+00	1.40684789e+05	3.00000000e+02	2.06719011e+03	4.47546741e+06	1.35468868e+00	1.80817820e-05	5.15507503e-53	1.53367335e-60	1.21522983e-53
4.00116600e-01	1.29320011e-01	2.38604780e-03	1.29391570e+00	1.37780975e+05	3.00000000e+02	2.06003742e+03	4.39672463e+06	1.34055586e+00	1.80817820e-05	8.06742175e-54	1.80714384e-61	8.68306347e-55
4.02062635e-01	1.29320011e-01	1.83557398e-03	1.40614919e+00	1.52260149e+05	3.00000000e+02	2.10848722e+03	4.79332981e+06	1.41382057e+00	1.80817820e-05	1.02933976e-51	4.22555504e-59	3.12361781e-52
4.02158930e-01	1.29320011e-01	2.11346276e-03	1.41352819e+00	1.53223142e+05	3.00000000e+02	2.11304054e+03	4.81890654e+06	1.41906275e+00	1.80817820e-05	1.05442076e-50	4.16042607e-58	3.92149896e-51
4.01768193e-01	1.29320011e-01	1.96695855e-03	1.38442247e+00	1.49417087e+05	3.00000000e+02	2.09730181e+03	4.71514172e+06	1.39913322e+00	1.80817820e-05	6.29278997e-52	2.47249053e-59	1.89641089e-52
4.01858618e-01	1.29320011e-01	2.28561835e-03	1.39109353e+00	1.50276556e+05	3.00000000e+02	2.09920604e+03	4.73726501e+06	1.40313687e+00	1.80817820e-05	7.72280403e-51	2.96441915e-58	2.90254402e-51
4.01974461e-01	1.29320011e-01	2.60500679e-03	1.39955960e+00	1.51385168e+05	3.00000000e+02	2.10458903e+03	4.76785920e+06	1.40920347e+00	1.80817820e-05	1.03993179e-49	3.45221792e-57	4.48890977e-50
4.01654985e-01	1.29320011e-01	2.84941335e-03	1.37648934e+00	1.48369676e+05	3.00000000e+02	2.09205024e+03	4.68449148e+06	1.39337134e+00	1.80817820e-05	9.38742926e-50	3.07017280e-57	4.10943738e-50
4.01300970e-01	1.29320011e-01	3.20991140e-03	1.35314624e+00	1.45348226e+05	3.00000000e+02	2.08177548e+03	4.60210515e+06	1.37810935e+00	1.80817820e-05	7.73583681e-50	2.53301981e-57	3.39894782e-50
4.00864898e-01	1.29320011e-01	3.66567551e-03	1.32860431e+00	1.42194840e+05	3.00000000e+02	2.07199756e+03	4.51624073e+06	1.36234410e+00	1.80817820e-05	4.97569814e-50	1.64946121e-57	2.14212172e-50
4.01193100e-01	1.29320011e-01	4.63185826e-03	1.34784258e+00	1.44654886e+05	3.00000000e+02	2.07915986e+03	4.58186953e+06	1.37454162e+00	1.80817820e-05	4.74698698e-48	1.44356443e-55	2.46896477e-48
4.02224705e-01	1.29320011e-01	1.47375444e-03	1.41850918e+00	1.53894165e+05	3.00000000e+02	2.11660128e+03	4.83930120e+06	1.42275874e+00	1.80817820e-05	2.07615065e-52	7.79418177e-60	4.07016597e-53
4.02430584e-01	1.29320011e-01	1.41277460e-03	1.43480785e+00	1.56015530e+05	3.00000000e+02	2.12497369e+03	4.89363827e+06	1.43373213e+00	1.80817820e-05	3.05638961e-52	1.20469107e-59	6.20880994e-53
4.02308642e-01	1.29320011e-01	1.73212580e-03	1.42515700e+00	1.54738312e+05	3.00000000e+02	2.11866926e+03	4.85836755e+06	1.42677665e+00	1.80817820e-05	1.50196108e-51	6.36220559e-59	4.55988592e-52
4.02511060e-01	1.29320011e-01	1.66044691e-03	1.44084867e+00	1.56835239e+05	3.00000000e+02	2.13028416e+03	4.91858802e+06	1.43854125e+00	1.80817820e-05	2.11246132e-51	9.11630122e-59	6.37554575e-52
4.02703815e-01	1.29320011e-01	1.59218898e-03	1.45617315e+00	1.58857853e+05	3.00000000e+02	2.14020244e+03	4.97234098e+06	1.44953366e+00	1.80817820e-05	2.86590200e-51	1.24949951e-58	8.55562757e-52
4.02012793e-01	1.29320011e-01	1.35832420e-04	1.40433749e+00	1.52011577e+05	3.00000000e+02	2.10730401e+03	4.78508344e+06	1.41251664e+00	1.80817820e-05	1.57078115e-55	3.40645802e-63	-2.97295200e-56
4.02227442e-01	1.29320011e-01	1.30216461e-04	1.42056646e+00	1.54152969e+05	3.00000000e+02	2.11778865e+03	4.84484819e+06	1.42418515e+00	1.80817820e-05	2.70157963e-55	5.99172051e-63	-5.17713983e-56
4.02431851e-01	1.29320011e-01	1.24856096e-04	1.43632660e+00	1.56236920e+05	3.00000000e+02	2.12821235e+03	4.90228238e+06	1.43558346e+00	1.80817820e-05	4.47241827e-55	1.00799793e-62	-8.72467699e-56
4.02626528e-01	1.29320011e-01	1.19763383e-04	1.45147413e+00	1.58246626e+05	3.00000000e+02	2.13872221e+03	4.95734378e+06	1.44669242e+00	1.80817820e-05	7.14454046e-55	1.63072605e-62	-1.42085210e-55
4.02811920e-01	1.29320011e-01	1.14907718e-04	1.46588495e+00	1.60164328e+05	3.00000000e+02	2.14927205e+03	5.00954187e+06	1.45743772e+00	1.80817820e-05	1.10432292e-54	2.54842747e-62	-2.23646663e-55
4.02988458e-01	1.29320011e-01	1.10277213e-04	1.47944843e+00	1.61974419e+05	3.00000000e+02	2.15981930e+03	5.05851590e+06	1.46775305e+00	1.80817820e-05	1.65677000e-54	3.86319512e-62	-3.40788204e-55
4.02027018e-01	1.29320011e-01	4.07122208e-04	1.40437541e+00	1.51979625e+05	3.00000000e+02	2.10229175e+03	4.77940954e+06	1.41085718e+00	1.80817820e-05	7.48506685e-55	1.68303152e-62	-7.97183012e-56
4.02241078e-01	1.29320011e-01	3.90273734e-04	1.42127624e+00	1.54190426e+05	3.00000000e+02	2.11156523e+03	4.83870411e+06	1.42244625e+00	1.80817820e-05	1.17485896e-54	2.66952961e-62	-1.33189330e-55
4.02444929e-01	1.29320011e-01	3.74234995e-04	1.43743333e+00	1.56330841e+05	3.00000000e+02	2.12259147e+03	4.89821838e+06	1.43423868e+00	1.80817820e-05	1.78338545e-54	4.10403984e-62	-2.14431517e-55
4.02639069e-01	1.29320011e-01	3.58952459e-04	1.45280595e+00	1.58375255e+05	3.00000000e+02	2.13393680e+03	4.95482549e+06	1.44573584e+00	1.80817820e-05	2.62943381e-54	6.14119326e-62	-3.32782988e-55
4.02823954e-01	1.29320011e-01	3.44404666e-04	1.46728171e+00	1.60307988e+05	3.00000000e+02	2.14539337e+03	5.00819487e+06	1.45681561e+00	1.80817820e-05	3.77855205e-54	8.97501283e-62	-4.98633910e-55
4.03000001e-01	1.29320011e-01	3.30551110e-04	1.48080805e+00	1.62119662e+05	3.00000000e+02	2.15675431e+03	5.05797726e+06	1.46738504e+00	1.80817820e-05	5.30831467e-54	1.28452440e-61	-7.23191423e-55
4.02055425e-01	1.29320011e-01	6.77304372e-04	1.40658831e+00	1.52273065e+05	3.00000000e+02	2.10468703e+03	4.78789097e+06	1.41276799e+00	1.80817820e-05	3.90633162e-54	8.67124028e-62	-1.36025494e-55
4.02268307e-01	1.29320011e-01	6.49273395e-04	1.42312874e+00	1.54457794e+05	3.00000000e+02	2.11492103e+03	4.84900122e+06	1.42450356e+00	1.80817820e-05	5.56649834e-54	1.25909557e-61	-2.43839491e-55
4.02471040e-01	1.29320011e-01	6.22584942e-04	1.43928169e+00	1.56584832e+05	3.00000000e+02	2.12482802e+03	4.90634231e+06	1.43591641e+00	1.80817820e-05	7.75830563e-54	1.80037457e-61	-4.01338826e-55
4.02664106e-01	1.29320011e-01	5.97160626e-04	1.45462924e+00	1.58620270e+05	3.00000000e+02	2.13552765e+03	4.96184522e+06	1.44718190e+00	1.80817820e-05	1.06175074e-53	2.54283161e-61	-6.17492542e-55
4.02847963e-01	1.29320011e-01	5.72960711e-04	1.46906755e+00	1.60544140e+05	3.00000000e+02	2.14654682e+03	5.01436316e+06	1.45809369e+00	1.80817820e-05	1.43086965e-53	3.55056447e-61	-8.99503145e-55
4.03023056e-01	1.29320011e-01	5.49909341e-04	1.48253386e+00	1.62344946e+05	3.00000000e+02	2.15759609e+03	5.06339032e+06	1.46852637e+00	1.80817820e-05	1.90248670e-53	4.90049347e-61	-1.25209573e-54
4.02097914e-01	1.29320011e-01	9.45618300e-04	1.40932984e+00	1.52662765e+05	3.00000000e+02	2.10885342e+03	4.80241905e+06	1.41554922e+00	1.80817820e-05	1.78791534e-53	3.81789163e-61	5.20328465e-55
4.02309045e-01	1.29320011e-01	9.06489728e-04	1.42591777e+00	1.54823625e+05	3.00000000e+02	2.11727845e+03	4.85877265e+06	1.42669322e+00	1.80817820e-05	2.33667160e-53	5.28874285e-61	4.84286198e-55
4.02510108e-01	1.29320011e-01	8.69225159e-04	1.44184813e+00	1.56932550e+05	3.00000000e+02	2.12763498e+03	4.91683052e+06	1.43814504e+00	1.80817820e-05	3.04730808e-53	7.36450698e-61	4.56093847e-55
4.02701582e-01	1.29320011e-01	8.33740540e-04	1.45712461e+00	1.58958024e+05	3.00000000e+02	2.13809325e+03	4.97179162e+06	1.44929246e+00	1.80817820e-05	3.96625082e-53	1.02537564e-60	4.69735648e-55
4.02883917e-01	1.29320011e-01	7.99943011e-04	1.47151906e+00	1.60874338e+05	3.00000000e+02	2.14882782e+03	5.02370964e+06	1.46008494e+00	1.80817820e-05	5.14884576e-53	1.42054867e-60	5.68637525e-55
4.03057572e-01	1.29320011e-01	7.67760171e-04	1.48492923e+00	1.62666411e+05	3.00000000e+02	2.15967993e+03	5.07218811e+06	1.47042183e+00	1.80817820e-05	6.65619094e-53	1.94888616e-60	8.02831559e-55
4.02154397e-01	1.29320011e-01	1.21134549e-03	1.41355414e+00	1.53203436e+05	3.00000000e+02	2.11111349e+03	4.81541544e+06	1.41842122e+00	1.80817820e-05	5.34496816e-53	1.40881039e-60	4.43757339e-54
4.02363182e-01	1.29320011e-01	1.16122137e-03	1.42966992e+00	1.55343957e+05	3.00000000e+02	2.12188300e+03	4.87620781e+06	1.43012162e+00	1.80817820e-05	7.30275782e-53	2.10469684e-60	6.35084305e-54
4.02562025e-01	1.29320011e-01	1.11348793e-03	1.44552277e+00	1.57430162e+05	3.00000000e+02	2.13140022e+03	4.93174466e+06	1.44125006e+00	1.80817820e-05	9.94533560e-53	3.10340439e-60	9.17973928e-54
4.02751379e-01	1.29320011e-01	1.06802313e-03	1.46062963e+00	1.59431790e+05	3.00000000e+02	2.14157724e+03	4.98560749e+06	1.45221625e+00	1.80817820e-05	1.34483211e-52	4.48837093e-60	1.31850492e-53
4.02931697e-01	1.29320011e-01	1.02473496e-03	1.47486816e+00	1.61326569e+05	3.00000000e+02	2.15207941e+03	5.03659851e+06	1.46285107e+00	1.80817820e-05	1.79968080e-52	6.34186661e-60	1.86177377e-53
4.03103429e-01	1.29320011e-01	9.83505926e-04	1.48812934e+00	1.63097915e+05	3.00000000e+02	2.16272507e+03	5.08420054e+06	1.47304279e+00	1.80817820e-05	2.37663232e-52	8.73743940e-60	2.56868322e-53
4.02626649e-01	1.29320011e-01	1.35468736e-03	1.45030198e+00	1.58071459e+05	3.00000000e+02	2.13546979e+03	4.95013244e+06	1.44500817e+00	1.80817820e-05	4.37226658e-52	1.78510243e-59	9.08046528e-53
4.02813366e-01	1.29320011e-01	1.29939158e-03	1.46513718e+00	1.60039946e+05	3.00000000e+02	2.14576778e+03	5.00311014e+06	1.45587762e+00	1.80817820e-05	6.07285221e-52	2.54010965e-59	1.27541570e-52
4.02991176e-01	1.29320011e-01	1.24671766e-03	1.47911576e+00	1.61900449e+05	3.00000000e+02	2.15615749e+03	5.05291027e+06	1.46634340e+00	1.80817820e-05	8.19665618e-52	3.48359672e-59	1.72604511e-52
4.03160507e-01	1.29320011e-01	1.19655590e-03	1.49212810e+00	1.63638236e+05	3.00000000e+02	2.16661950e+03	5.09930579e+06	1.47634802e+00	1.80817820e-05	1.07648818e-51	4.61980910e-59	2.25807597e-52
4.02887374e-01	1.29320011e-01	1.52718694e-03	1.47066380e+00	1.60782808e+05	3.00000000e+02	2.15055868e+03	5.02400570e+06	1.46024833e+00	1.80817820e-05	3.76150704e-51	1.64833479e-58	1.10652571e-51
4.03062196e-01	1.29320011e-01	1.46528007e-03	1.48427498e+00	1.62596680e+05	3.00000000e+02	2.16097157e+03	5.07247654e+06	1.47053741e+00	1.80817820e-05	4.78974753e-51	2.10156391e-58	1.38445959e-51
4.07160220e-01	1.29320011e-01	1.51994492e-03	1.60068987e+00	1.77934201e+05	3.00000000e+02	2.35336134e+03	5.42921141e+06	1.59364752e+00	1.80817820e-05	1.95058996e-46	3.77015873e-54	5.66453012e-47
4.07239827e-01	1.29320011e-01	1.51994499e-03	1.59957087e+00	1.77767896e+05	3.00000000e+02	2.35414921e+03	5.42341976e+06	1.59335704e+00	1.80817820e-05	2.09831213e-46	4.08717167e-54	6.00526699e-47
4.07322780e-01	1.29320011e-01	1.55977488e-03	1.59830557e+00	1.77582103e+05	3.00000000e+02	2.35492087e+03	5.41717329e+06	1.59298773e+00	1.80817820e-05	2.66295315e-46	5.33065379e-54	7.63466652e-47
4.07319316e-01	1.29320011e-01	1.51577917e-03	1.59839100e+00	1.77593043e+05	3.00000000e+02	2.35480930e+03	5.41737343e+06	1.59299257e+00	1.80817820e-05	2.21940985e-46	4.41821784e-54	6.25130649e-47
4.07410302e-01	1.29320011e-01	1.59726049e-03	1.59689308e+00	1.77375479e+05	3.00000000e+02	2.35563502e+03	5.41029557e+06	1.59252541e+00	1.80817820e-05	3.35296052e-46	7.13820953e-54	9.62198155e-47
4.07404251e-01	1.29320011e-01	1.55121322e-03	1.59702821e+00	1.77393532e+05	3.00000000e+02	2.35548301e+03	5.41071782e+06	1.59254110e+00	1.80817820e-05	2.77367503e-46	5.82245950e-54	7.81531227e-47
4.07398483e-01	1.29320011e-01	1.50745770e-03	1.59715596e+00	1.77410580e+05	3.00000000e+02	2.35535399e+03	5.41111315e+06	1.59256118e+00	1.80817820e-05	2.30875121e-46	4.78888088e-54	6.39146661e-47
4.07316022e-01	1.29320011e-01	1.47397176e-03	1.59847519e+00	1.77603416e+05	3.00000000e+02	2.35467277e+03	5.41751436e+06	1.59298834e+00	1.80817820e-05	1.86083041e-46	3.68756323e-54	5.15241652e-47
4.07312892e-01	1.29320011e-01	1.43424495e-03	1.59855579e+00	1.77613267e+05	3.00000000e+02	2.35453369e+03	5.41763818e+06	1.59298146e+00	1.80817820e-05	1.56943026e-46	3.09886758e-54	4.27434029e-47
4.07392998e-01	1.29320011e-01	1.46587977e-03	1.59727927e+00	1.77426677e+05	3.00000000e+02	2.35520793e+03	5.41144535e+06	1.59257326e+00	1.80817820e-05	1.93340305e-46	3.96989565e-54	5.26196295e-47
4.07493606e-01	1.29320011e-01	1.58406690e-03	1.59551324e+00	1.77173253e+05	3.00000000e+02	2.35608494e+03	5.40351373e+06	1.59198930e+00	1.80817820e-05	3.43925382e-46	7.99515822e-54	9.68677102e-47
4.07576118e-01	1.29320011e-01	1.56652947e-03	1.59410619e+00	1.76964766e+05	3.00000000e+02	2.35632803e+03	5.39627238e+06	1.59136890e+00	1.80817820e-05	3.47021626e-46	9.16807126e-54	9.58086095e-47
4.07485147e-01	1.29320011e-01	1.53839882e-03	1.59569860e+00	1.77198171e+05	3.00000000e+02	2.35593184e+03	5.40411524e+06	1.59202968e+00	1.80817820e-05	2.84167478e-46	6.43885923e-54	7.85883863e-47
4.07477105e-01	1.29320011e-01	1.49500351e-03	1.59587226e+00	1.77221573e+05	3.00000000e+02	2.35579084e+03	5.40468548e+06	1.59206866e+00	1.80817820e-05	2.36276904e-46	5.23725887e-54	6.42033669e-47
4.07565277e-01	1.29320011e-01	1.52136907e-03	1.59433422e+00	1.76996766e+05	3.00000000e+02	2.35623329e+03	5.39719917e+06	1.59145072e+00	1.80817820e-05	2.86430443e-46	7.25536654e-54	7.76493952e-47
4.07554979e-01	1.29320011e-01	1.47845535e-03	1.59454773e+00	1.77027108e+05	3.00000000e+02	2.35612467e+03	5.39811931e+06	1.59152059e+00	1.80817820e-05	2.37927347e-46	5.81245252e-54	6.33765901e-47
4.07644407e-01	1.29320011e-01	1.50016759e-03	1.59292985e+00	1.76791172e+05	3.00000000e+02	2.35645168e+03	5.39030586e+06	1.59082337e+00	1.80817820e-05	2.84081973e-46	8.36868662e-54	7.53981288e-47
4.07631866e-01	1.29320011e-01	1.45785262e-03	1.59319226e+00	1.76828530e+05	3.00000000e+02	2.35634959e+03	5.39144813e+06	1.59091993e+00	1.80817820e-05	2.35784078e-46	6.57370274e-54	6.14883069e-47
4.07722294e-01	1.29320011e-01	1.47485541e-03	1.59149395e+00	1.76582712e+05	3.00000000e+02	2.35662717e+03	5.38348830e+06	1.59016541e+00	1.80817820e-05	2.77264965e-46	9.88527110e-54	7.19611244e-47