VARIABLES ="X" "Y" "Z" "rho" "press" "temp" "tau_wall" "qdot" "yplus" "muLam" "ZMean" "ZVar" "CMean" 
Zone T ="wall" I = 7342 , F = point
4.22644735e-01	1.19520001e-01	3.22265644e-03	6.55616904e-01	1.11854941e+05	3.00000000e+02	1.06464497e+03	6.79409722e+06	9.35911322e-01	1.75583280e-05	6.05957389e-02	1.32202445e-10	2.35457828e-01
4.23697397e-01	1.19520001e-01	2.63671891e-03	5.65552506e-01	1.12836319e+05	3.00000000e+02	1.29561439e+03	5.17177472e+06	9.82932215e-01	1.71293610e-05	8.44364376e-02	5.94850977e-10	1.53039664e-01
4.22644734e-01	1.19520001e-01	2.63671891e-03	5.54758596e-01	1.13158743e+05	3.00000000e+02	1.34419468e+03	4.90444854e+06	9.97456503e-01	1.70286228e-05	8.83522620e-02	8.07028923e-10	1.25459777e-01
4.23697397e-01	1.19520001e-01	2.05078133e-03	4.39301756e-01	1.13703654e+05	3.00000000e+02	1.44111897e+03	3.60357460e+06	9.71182050e-01	1.61146592e-05	1.37563973e-01	1.78581663e-09	4.51063309e-02
4.22644735e-01	1.19520001e-01	2.05078133e-03	4.24662544e-01	1.14213169e+05	3.00000000e+02	1.46825633e+03	3.48167493e+06	9.72222115e-01	1.59752553e-05	1.46314265e-01	2.23073206e-09	3.63694275e-02
4.23697397e-01	1.19520001e-01	1.46484381e-03	3.29655843e-01	1.16630236e+05	3.00000000e+02	1.48068454e+03	2.67662971e+06	9.27054601e-01	1.48233625e-05	2.20831560e-01	3.08339489e-09	1.38021156e-02
4.22644735e-01	1.19520001e-01	1.46484381e-03	3.15398378e-01	1.17326525e+05	3.00000000e+02	1.49288539e+03	2.57050297e+06	9.24712711e-01	1.45957535e-05	2.36663370e-01	3.65322956e-09	1.17119800e-02
4.23697397e-01	1.19520001e-01	8.78906286e-04	2.40580938e-01	1.16427494e+05	3.00000000e+02	1.01326800e+03	1.32127115e+06	7.30604142e-01	1.32923272e-05	3.38130515e-01	1.42639334e-09	5.30441194e-03
4.22644735e-01	1.19520001e-01	8.78906286e-04	2.29838477e-01	1.16586745e+05	3.00000000e+02	1.00255009e+03	1.23379176e+06	7.22912450e-01	1.30607792e-05	3.58594812e-01	1.57305213e-09	4.80687602e-03
4.23697397e-01	1.19520001e-01	2.92968761e-04	1.77946365e-01	1.20073044e+05	3.00000000e+02	6.93830685e+02	5.99124328e+05	5.92771581e-01	1.16593496e-05	5.06879815e-01	2.50024736e-10	2.97266890e-03
4.22644734e-01	1.19520001e-01	2.92968761e-04	1.73368910e-01	1.20401035e+05	3.00000000e+02	6.83136081e+02	5.61320255e+05	5.87455960e-01	1.15227010e-05	5.24184852e-01	2.47892746e-10	2.90469917e-03
4.45249379e-01	1.19520001e-01	9.08203144e-03	1.50610854e+00	1.68761907e+05	3.00000000e+02	1.88174545e+03	4.24409374e+06	1.83128259e+00	1.80818803e-05	3.32116344e-05	3.14513065e-15	4.03515086e-04
4.44148869e-01	1.19520001e-01	9.08203144e-03	1.62288493e+00	1.84284265e+05	3.00000000e+02	1.85340453e+03	4.49526689e+06	1.88658351e+00	1.80818692e-05	3.07011071e-05	3.99741741e-15	3.73234827e-04
4.43050816e-01	1.19520001e-01	9.08203144e-03	1.74046951e+00	1.99593447e+05	3.00000000e+02	1.75287142e+03	4.68347856e+06	1.90000861e+00	1.80818581e-05	2.80185479e-05	4.54904258e-15	3.41489845e-04
4.41955209e-01	1.19520001e-01	9.08203144e-03	1.83083048e+00	2.10570971e+05	3.00000000e+02	1.58116573e+03	4.73988344e+06	1.85080378e+00	1.80818462e-05	2.49757136e-05	3.89764022e-15	3.05488768e-04
4.40862015e-01	1.19520001e-01	9.08203144e-03	1.83447077e+00	2.10117770e+05	3.00000000e+02	1.39812063e+03	4.66063704e+06	1.74211026e+00	1.80818336e-05	2.14670586e-05	1.43182816e-15	2.62994655e-04
4.39771250e-01	1.19520001e-01	9.08203144e-03	1.70863942e+00	1.90050380e+05	3.00000000e+02	1.25431967e+03	4.10802272e+06	1.59249305e+00	1.80818210e-05	1.76713568e-05	-6.00998808e-16	2.14222287e-04
4.38682899e-01	1.19520001e-01	9.08203144e-03	1.47739294e+00	1.61669451e+05	3.00000000e+02	1.38721116e+03	3.80800858e+06	1.55728380e+00	1.80818106e-05	1.41390797e-05	-4.62190295e-16	1.66443249e-04
4.37596962e-01	1.19520001e-01	9.08203144e-03	1.33047197e+00	1.44006864e+05	3.00000000e+02	1.53920907e+03	3.60964833e+06	1.55668343e+00	1.80818039e-05	1.15938192e-05	-5.43697640e-17	1.33405823e-04
4.36513454e-01	1.19520001e-01	9.08203144e-03	1.28055591e+00	1.38872171e+05	3.00000000e+02	1.64821158e+03	3.64468918e+06	1.58035435e+00	1.80818000e-05	9.95081508e-06	7.98426182e-17	1.13730183e-04
4.35432360e-01	1.19520001e-01	9.08203144e-03	1.30092830e+00	1.41819800e+05	3.00000000e+02	1.68450019e+03	3.73938524e+06	1.61031560e+00	1.80817973e-05	8.73261494e-06	6.39793442e-17	9.97862840e-05
4.34353665e-01	1.19520001e-01	9.08203144e-03	1.33473366e+00	1.46410717e+05	3.00000000e+02	1.68044973e+03	3.85259599e+06	1.62914189e+00	1.80817951e-05	7.66805223e-06	-2.73376935e-17	8.77022260e-05
4.33277353e-01	1.19520001e-01	9.08203144e-03	1.35649758e+00	1.49545656e+05	3.00000000e+02	1.65810832e+03	3.94458940e+06	1.63141651e+00	1.80817930e-05	6.62365150e-06	-1.25678716e-16	7.58434591e-05
4.32203412e-01	1.19520001e-01	9.08203144e-03	1.34972093e+00	1.49087700e+05	3.00000000e+02	1.62529030e+03	3.98040482e+06	1.61115158e+00	1.80817910e-05	5.58775400e-06	-1.55263600e-16	6.40613819e-05
4.31131870e-01	1.19520001e-01	9.08203144e-03	1.30141936e+00	1.43244644e+05	3.00000000e+02	1.59279792e+03	3.91542150e+06	1.56616658e+00	1.80817892e-05	4.60362191e-06	-7.25527165e-17	5.29092637e-05
4.30062726e-01	1.19520001e-01	9.08203143e-03	1.21135615e+00	1.31904738e+05	3.00000000e+02	1.57502930e+03	3.71914532e+06	1.50255113e+00	1.80817877e-05	3.73319387e-06	5.59970797e-17	4.31636529e-05
4.28995937e-01	1.19520001e-01	9.08203144e-03	1.11584838e+00	1.19935701e+05	3.00000000e+02	1.58649526e+03	3.48494541e+06	1.44734155e+00	1.80817866e-05	3.03603684e-06	1.09701236e-16	3.54790357e-05
4.27931517e-01	1.19520001e-01	9.08203144e-03	1.05009292e+00	1.11589199e+05	3.00000000e+02	1.59718637e+03	3.28226195e+06	1.40877206e+00	1.80817857e-05	2.50905577e-06	8.64365207e-17	2.96899179e-05
4.26869452e-01	1.19520001e-01	9.08203144e-03	1.02442162e+00	1.08237522e+05	3.00000000e+02	1.61613840e+03	3.18100081e+06	1.39967667e+00	1.80817851e-05	2.11414487e-06	8.12317335e-17	2.53398066e-05
4.25809741e-01	1.19520001e-01	9.08203144e-03	1.03709012e+00	1.09698456e+05	3.00000000e+02	1.64420111e+03	3.20067204e+06	1.42047897e+00	1.80817846e-05	1.79560422e-06	8.82849227e-17	2.18224637e-05
4.24752399e-01	1.19520001e-01	9.08203143e-03	1.07210772e+00	1.13897468e+05	3.00000000e+02	1.66209403e+03	3.27752663e+06	1.45209861e+00	1.80817842e-05	1.52739395e-06	1.03744887e-16	1.88518152e-05
4.23697397e-01	1.19520001e-01	9.08203144e-03	1.11504152e+00	1.18957378e+05	3.00000000e+02	1.65935591e+03	3.35199326e+06	1.47966841e+00	1.80817839e-05	1.29662112e-06	1.20687161e-16	1.62866193e-05
4.45249379e-01	1.19520001e-01	8.49609403e-03	1.49405683e+00	1.68718940e+05	3.00000000e+02	1.94839090e+03	4.37800088e+06	1.85579440e+00	1.80834850e-05	1.67785733e-04	3.15857759e-14	2.21351006e-03
4.44148869e-01	1.19520001e-01	8.49609403e-03	1.59815796e+00	1.82757708e+05	3.00000000e+02	1.92774823e+03	4.61694984e+06	1.90915327e+00	1.80835877e-05	1.73165337e-04	4.19851637e-14	2.28360293e-03
4.43050816e-01	1.19520001e-01	8.49609403e-03	1.70325517e+00	1.96760682e+05	3.00000000e+02	1.84153755e+03	4.81184314e+06	1.92634100e+00	1.80837029e-05	1.79323248e-04	5.27570797e-14	2.35522155e-03
4.41955209e-01	1.19520001e-01	8.49609403e-03	1.78087350e+00	2.06312063e+05	3.00000000e+02	1.68619480e+03	4.86671550e+06	1.88483088e+00	1.80837463e-05	1.82250603e-04	5.50023162e-14	2.37183808e-03
4.40862014e-01	1.19520001e-01	8.49609403e-03	1.77997843e+00	2.04807408e+05	3.00000000e+02	1.51454902e+03	4.73519444e+06	1.78588786e+00	1.80836144e-05	1.76867931e-04	4.19329793e-14	2.26645123e-03
4.39771250e-01	1.19520001e-01	8.49609403e-03	1.65998780e+00	1.86908503e+05	3.00000000e+02	1.41961388e+03	4.32394121e+06	1.66975320e+00	1.80832159e-05	1.56096843e-04	1.80882894e-14	1.97038223e-03
4.38682898e-01	1.19520001e-01	8.49609403e-03	1.47493332e+00	1.62763952e+05	3.00000000e+02	1.48590192e+03	3.95220156e+06	1.61030912e+00	1.80826634e-05	1.20158769e-04	5.82385954e-15	1.50418584e-03
4.37596962e-01	1.19520001e-01	8.49609403e-03	1.34610199e+00	1.46818461e+05	3.00000000e+02	1.58901569e+03	3.74049906e+06	1.59088688e+00	1.80823204e-05	9.20043990e-05	2.99630816e-15	1.13060524e-03
4.36513453e-01	1.19520001e-01	8.49609403e-03	1.28873447e+00	1.40600740e+05	3.00000000e+02	1.68350803e+03	3.74715249e+06	1.60224617e+00	1.80821663e-05	7.67473674e-05	3.11005687e-15	9.18229143e-04
4.35432360e-01	1.19520001e-01	8.49609403e-03	1.29414709e+00	1.41734638e+05	3.00000000e+02	1.72610085e+03	3.81800062e+06	1.62579722e+00	1.80821018e-05	6.92899517e-05	3.21175537e-15	8.19364820e-04
4.34353664e-01	1.19520001e-01	8.49609403e-03	1.31967620e+00	1.45356965e+05	3.00000000e+02	1.73464076e+03	3.92305632e+06	1.64581449e+00	1.80820626e-05	6.42484712e-05	3.13995624e-15	7.57115387e-04
4.33277353e-01	1.19520001e-01	8.49609403e-03	1.34196344e+00	1.48538082e+05	3.00000000e+02	1.71946303e+03	4.01396439e+06	1.65238080e+00	1.80820226e-05	5.86967060e-05	2.73156996e-15	6.89482647e-04
4.32203412e-01	1.19520001e-01	8.49609403e-03	1.34402213e+00	1.49079493e+05	3.00000000e+02	1.68521611e+03	4.05355051e+06	1.63710102e+00	1.80819772e-05	5.18347014e-05	2.07531265e-15	6.05600442e-04
4.31131869e-01	1.19520001e-01	8.49609403e-03	1.31080091e+00	1.44984045e+05	3.00000000e+02	1.64075065e+03	4.00192654e+06	1.59527371e+00	1.80819322e-05	4.42350901e-05	1.58142263e-15	5.12543104e-04
4.30062726e-01	1.19520001e-01	8.49609403e-03	1.23417532e+00	1.35069391e+05	3.00000000e+02	1.59750381e+03	3.80791543e+06	1.52741060e+00	1.80818959e-05	3.72673334e-05	1.59161423e-15	4.27169546e-04
4.28995937e-01	1.19520001e-01	8.49609403e-03	1.13584525e+00	1.22520131e+05	3.00000000e+02	1.58824070e+03	3.54587871e+06	1.46104872e+00	1.80818736e-05	3.24522064e-05	1.75777748e-15	3.68853470e-04
4.27931517e-01	1.19520001e-01	8.49609403e-03	1.06118006e+00	1.13068063e+05	3.00000000e+02	1.60192153e+03	3.32656334e+06	1.41828114e+00	1.80818647e-05	3.02734494e-05	1.43168381e-15	3.45687937e-04
4.26869452e-01	1.19520001e-01	8.49609403e-03	1.03049570e+00	1.09066769e+05	3.00000000e+02	1.61913965e+03	3.20838721e+06	1.40511704e+00	1.80818611e-05	2.93278187e-05	1.36467969e-15	3.37158840e-04
4.25809741e-01	1.19520001e-01	8.49609403e-03	1.03986614e+00	1.10091750e+05	3.00000000e+02	1.64202654e+03	3.21375040e+06	1.42143201e+00	1.80818598e-05	2.89157628e-05	1.54736930e-15	3.35077528e-04
4.24752400e-01	1.19520001e-01	8.49609403e-03	1.06932982e+00	1.13595001e+05	3.00000000e+02	1.65660111e+03	3.27355380e+06	1.44781181e+00	1.80818592e-05	2.86923808e-05	1.92787498e-15	3.35697708e-04
4.23697397e-01	1.19520001e-01	8.49609403e-03	1.10686096e+00	1.18022531e+05	3.00000000e+02	1.65759028e+03	3.33986070e+06	1.47343992e+00	1.80818592e-05	2.85717219e-05	2.48029911e-15	3.38279226e-04
4.45249379e-01	1.19520001e-01	7.91015662e-03	1.47742684e+00	1.68478917e+05	3.00000000e+02	1.97491083e+03	4.52216306e+06	1.85855264e+00	1.80776617e-05	6.58548876e-04	3.21847054e-13	6.98754014e-03
4.44148868e-01	1.19520001e-01	7.91015662e-03	1.56351980e+00	1.80281633e+05	3.00000000e+02	1.94726537e+03	4.73526318e+06	1.89909825e+00	1.80720414e-05	7.27579806e-04	4.54151826e-13	7.58220207e-03
4.43050816e-01	1.19520001e-01	7.91015662e-03	1.65071954e+00	1.92112732e+05	3.00000000e+02	1.85596374e+03	4.92371270e+06	1.90623724e+00	1.80607102e-05	8.15498267e-04	6.10397722e-13	8.42084828e-03
4.41955209e-01	1.19520001e-01	7.91015663e-03	1.71051727e+00	1.99846242e+05	3.00000000e+02	1.70722552e+03	5.00945465e+06	1.86224892e+00	1.80493610e-05	8.91807699e-04	6.90060723e-13	9.16421254e-03
4.40862014e-01	1.19520001e-01	7.91015662e-03	1.69972881e+00	1.97491259e+05	3.00000000e+02	1.56269696e+03	4.90455499e+06	1.77645560e+00	1.80452634e-05	9.17704953e-04	6.17219234e-13	9.48179291e-03
4.39771249e-01	1.19520001e-01	7.91015662e-03	1.60372595e+00	1.82952361e+05	3.00000000e+02	1.49412136e+03	4.54106843e+06	1.68635493e+00	1.80550799e-05	8.39014908e-04	3.76062572e-13	8.83323044e-03
4.38682898e-01	1.19520001e-01	7.91015662e-03	1.46834812e+00	1.64226064e+05	3.00000000e+02	1.54344327e+03	4.15564231e+06	1.63814461e+00	1.80758197e-05	6.55920971e-04	1.79357595e-13	7.24471191e-03
4.37596962e-01	1.19520001e-01	7.91015663e-03	1.36817054e+00	1.50852522e+05	3.00000000e+02	1.61765432e+03	3.89625713e+06	1.61801496e+00	1.80850966e-05	4.98574413e-04	8.89900162e-14	5.84372895e-03
4.36513453e-01	1.19520001e-01	7.91015662e-03	1.30664688e+00	1.43673222e+05	3.00000000e+02	1.70109186e+03	3.85116738e+06	1.62115114e+00	1.80888052e-05	4.09220386e-04	6.53196146e-14	4.88985168e-03
4.35432359e-01	1.19520001e-01	7.91015662e-03	1.29251814e+00	1.42450591e+05	3.00000000e+02	1.75175967e+03	3.89952973e+06	1.63630420e+00	1.80876408e-05	3.68904096e-04	5.98608786e-14	4.37271903e-03
4.34353665e-01	1.19520001e-01	7.91015662e-03	1.30545123e+00	1.44537567e+05	3.00000000e+02	1.77493169e+03	3.98740700e+06	1.65536622e+00	1.80870377e-05	3.47359690e-04	6.21731345e-14	4.06916494e-03
4.33277353e-01	1.19520001e-01	7.91015662e-03	1.32636322e+00	1.47532387e+05	3.00000000e+02	1.77085687e+03	4.07613966e+06	1.66670802e+00	1.80864705e-05	3.25804184e-04	6.53915930e-14	3.77011923e-03
4.32203412e-01	1.19520001e-01	7.91015662e-03	1.33805204e+00	1.49177030e+05	3.00000000e+02	1.73854568e+03	4.12289301e+06	1.65875629e+00	1.80857847e-05	2.96894235e-04	6.49366055e-14	3.40287037e-03
4.31131870e-01	1.19520001e-01	7.91015663e-03	1.32272812e+00	1.47096424e+05	3.00000000e+02	1.68175451e+03	4.07987654e+06	1.62213752e+00	1.80850331e-05	2.61299698e-04	5.79614659e-14	2.98257536e-03
4.30062726e-01	1.19520001e-01	7.91015662e-03	1.26483475e+00	1.39236802e+05	3.00000000e+02	1.61615340e+03	3.89556488e+06	1.55505317e+00	1.80843676e-05	2.25692284e-04	4.64309940e-14	2.58457407e-03
4.28995937e-01	1.19520001e-01	7.91015662e-03	1.16774382e+00	1.26463473e+05	3.00000000e+02	1.57885476e+03	3.59959195e+06	1.47687418e+00	1.80838862e-05	1.99876658e-04	3.63352040e-14	2.30818070e-03
4.27931518e-01	1.19520001e-01	7.91015663e-03	1.07989706e+00	1.15367940e+05	3.00000000e+02	1.59365890e+03	3.35551364e+06	1.42689084e+00	1.80837503e-05	1.92310144e-04	3.18530997e-14	2.23447278e-03
4.26869452e-01	1.19520001e-01	7.91015663e-03	1.03845374e+00	1.10090536e+05	3.00000000e+02	1.61480041e+03	3.21804966e+06	1.40848452e+00	1.80838672e-05	1.97803826e-04	3.31737895e-14	2.31180759e-03
4.25809741e-01	1.19520001e-01	7.91015662e-03	1.04314591e+00	1.10561022e+05	3.00000000e+02	1.63493524e+03	3.21205239e+06	1.42041459e+00	1.80841486e-05	2.11188399e-04	4.13646461e-14	2.48385638e-03
4.24752399e-01	1.19520001e-01	7.91015663e-03	1.06557695e+00	1.13243863e+05	3.00000000e+02	1.64515191e+03	3.25769695e+06	1.44005674e+00	1.80844870e-05	2.29508636e-04	5.64013700e-14	2.71795507e-03
4.45249379e-01	1.19520001e-01	7.32421899e-03	1.45271217e+00	1.68646187e+05	3.00000000e+02	1.88270545e+03	4.82077373e+06	1.80478362e+00	1.80237943e-05	2.02831300e-03	1.97469829e-12	1.91498961e-02
4.44148869e-01	1.19520001e-01	7.32421898e-03	1.51618257e+00	1.76064448e+05	3.00000000e+02	1.82088037e+03	4.78923365e+06	1.81246988e+00	1.80316738e-05	2.33624047e-03	2.68802150e-12	2.15225275e-02
4.43050816e-01	1.19520001e-01	7.32421899e-03	1.57802426e+00	1.85924060e+05	3.00000000e+02	1.72097991e+03	5.13548061e+06	1.80336165e+00	1.79743127e-05	2.71157210e-03	3.63494518e-12	2.45789344e-02
4.41955209e-01	1.19520001e-01	7.32421899e-03	1.62202796e+00	1.91612061e+05	3.00000000e+02	1.59777831e+03	5.10977858e+06	1.75863604e+00	1.80053615e-05	3.07414450e-03	4.84504739e-12	2.77689541e-02
4.40862015e-01	1.19520001e-01	7.32421899e-03	1.61250005e+00	1.88198797e+05	3.00000000e+02	1.46572558e+03	4.84724601e+06	1.67927343e+00	1.80071578e-05	3.26691601e-03	4.57058138e-12	2.90729918e-02
4.39771250e-01	1.19520001e-01	7.32421899e-03	1.54931297e+00	1.78067333e+05	3.00000000e+02	1.44669352e+03	4.55066303e+06	1.63522001e+00	1.80082718e-05	3.07444705e-03	3.56631256e-12	2.74538270e-02
4.38682899e-01	1.19520001e-01	7.32421899e-03	1.44514062e+00	1.64937490e+05	3.00000000e+02	1.45829812e+03	4.44612350e+06	1.58438254e+00	1.80222309e-05	2.50589490e-03	1.78342855e-12	2.25561082e-02
4.37596961e-01	1.19520001e-01	7.32421899e-03	1.39397334e+00	1.56183110e+05	3.00000000e+02	1.52499327e+03	4.15379462e+06	1.59208951e+00	1.80129193e-05	1.91695329e-03	9.23787056e-13	1.78573723e-02
4.36513454e-01	1.19520001e-01	7.32421899e-03	1.32939615e+00	1.48449023e+05	3.00000000e+02	1.61711421e+03	4.07261141e+06	1.59765720e+00	1.80511277e-05	1.55502833e-03	6.10563243e-13	1.48416702e-02
4.35432359e-01	1.19520001e-01	7.32421899e-03	1.29373400e+00	1.44457984e+05	3.00000000e+02	1.71448312e+03	4.07595159e+06	1.62198233e+00	1.80606497e-05	1.38549207e-03	5.67251910e-13	1.35463867e-02
4.34353665e-01	1.19520001e-01	7.32421899e-03	1.28938298e+00	1.44407286e+05	3.00000000e+02	1.76441348e+03	4.13733899e+06	1.64239628e+00	1.80635698e-05	1.30862799e-03	5.94102207e-13	1.27911671e-02
4.33277354e-01	1.19520001e-01	7.32421898e-03	1.30643400e+00	1.46796683e+05	3.00000000e+02	1.77544059e+03	4.20511350e+06	1.65838455e+00	1.80635021e-05	1.25460822e-03	6.58155790e-13	1.21863892e-02
4.32203412e-01	1.19520001e-01	7.32421899e-03	1.32623527e+00	1.49352195e+05	3.00000000e+02	1.74334144e+03	4.25923626e+06	1.65613970e+00	1.80590513e-05	1.18905423e-03	7.05351856e-13	1.14420131e-02
4.31131869e-01	1.19520001e-01	7.32421898e-03	1.32918453e+00	1.49356495e+05	3.00000000e+02	1.66878246e+03	4.23319618e+06	1.62268081e+00	1.80530168e-05	1.10168680e-03	6.77757270e-13	1.04865424e-02
4.30062726e-01	1.19520001e-01	7.32421899e-03	1.29079055e+00	1.43918319e+05	3.00000000e+02	1.57641275e+03	4.09674703e+06	1.55435177e+00	1.80511108e-05	1.00343540e-03	5.61017340e-13	9.45488522e-03
4.28995937e-01	1.19520001e-01	7.32421899e-03	1.20330863e+00	1.31800943e+05	3.00000000e+02	1.50947322e+03	3.76622916e+06	1.46816844e+00	1.80557578e-05	9.22168180e-04	4.22269696e-13	8.68834633e-03
4.27931518e-01	1.19520001e-01	7.32421898e-03	1.10242452e+00	1.18896935e+05	3.00000000e+02	1.52534931e+03	3.48406916e+06	1.41257385e+00	1.80566969e-05	9.00236396e-04	3.58894827e-13	8.58084788e-03
4.26869452e-01	1.19520001e-01	7.32421898e-03	1.04301131e+00	1.11816762e+05	3.00000000e+02	1.57237020e+03	3.37708235e+06	1.39539383e+00	1.80515915e-05	9.52342087e-04	3.89888391e-13	9.14988521e-03
4.25809741e-01	1.19520001e-01	7.32421899e-03	1.04037853e+00	1.11781442e+05	3.00000000e+02	1.59773989e+03	3.40674028e+06	1.40489772e+00	1.80507148e-05	1.06885097e-03	5.21278095e-13	1.02433604e-02
4.24752400e-01	1.19520001e-01	7.32421899e-03	1.05286670e+00	1.13078966e+05	3.00000000e+02	1.59276390e+03	3.36749765e+06	1.41017924e+00	1.80625251e-05	1.23856322e-03	7.52820782e-13	1.16447936e-02
4.45249379e-01	1.19520001e-01	6.73828158e-03	1.42437365e+00	1.65539141e+05	3.00000000e+02	1.61443630e+03	4.65761543e+06	1.65951473e+00	1.79734603e-05	5.09380823e-03	6.54800909e-12	4.32099088e-02
4.44148869e-01	1.19520001e-01	6.73828157e-03	1.46589872e+00	1.72774116e+05	3.00000000e+02	1.52602238e+03	4.89779632e+06	1.63802927e+00	1.79597861e-05	5.98846647e-03	9.39874539e-12	4.99923921e-02
4.43050816e-01	1.19520001e-01	6.73828158e-03	1.50684749e+00	1.79244686e+05	3.00000000e+02	1.40180420e+03	5.02572316e+06	1.59233231e+00	1.79529163e-05	7.02955129e-03	1.30239023e-11	5.77969839e-02
4.41955209e-01	1.19520001e-01	6.73828158e-03	1.52516244e+00	1.82217731e+05	3.00000000e+02	1.26175112e+03	5.04975218e+06	1.52026133e+00	1.79480404e-05	8.11605926e-03	1.68812139e-11	6.58551292e-02
4.40862015e-01	1.19520001e-01	6.73828158e-03	1.50455336e+00	1.79696891e+05	3.00000000e+02	1.15441552e+03	4.99339151e+06	1.44491608e+00	1.79404213e-05	8.78929769e-03	1.77339754e-11	7.08732238e-02
4.39771250e-01	1.19520001e-01	6.73828158e-03	1.46726693e+00	1.73233059e+05	3.00000000e+02	1.14342408e+03	4.76009267e+06	1.41990844e+00	1.79427198e-05	8.47640433e-03	1.47633648e-11	6.83609389e-02
4.38682899e-01	1.19520001e-01	6.73828158e-03	1.42696597e+00	1.65837428e+05	3.00000000e+02	1.20536084e+03	4.50843434e+06	1.43643320e+00	1.79585100e-05	7.25329994e-03	9.59522099e-12	5.89261830e-02
4.37596961e-01	1.19520001e-01	6.73828158e-03	1.39522852e+00	1.59582942e+05	3.00000000e+02	1.27333773e+03	4.29321064e+06	1.45998813e+00	1.79570726e-05	5.75644544e-03	5.35413245e-12	4.77013048e-02
4.36513454e-01	1.19520001e-01	6.73828158e-03	1.34837657e+00	1.53031408e+05	3.00000000e+02	1.35423180e+03	4.23222570e+06	1.47963764e+00	1.79633411e-05	4.62664127e-03	3.10224045e-12	3.88427970e-02
4.35432359e-01	1.19520001e-01	6.73828157e-03	1.31419565e+00	1.47695682e+05	3.00000000e+02	1.46624283e+03	4.04783729e+06	1.51769661e+00	1.79902992e-05	3.99271946e-03	2.58427174e-12	3.39531964e-02
4.34353665e-01	1.19520001e-01	6.73828158e-03	1.27802769e+00	1.45910724e+05	3.00000000e+02	1.56406494e+03	4.40881893e+06	1.54699768e+00	1.79762145e-05	3.71944183e-03	2.67461634e-12	3.14633982e-02
4.33277354e-01	1.19520001e-01	6.73828158e-03	1.27974215e+00	1.47113106e+05	3.00000000e+02	1.62128852e+03	4.53377462e+06	1.57458249e+00	1.79935294e-05	3.60179092e-03	3.18092808e-12	3.04568927e-02
4.32203412e-01	1.19520001e-01	6.73828158e-03	1.30083059e+00	1.49834819e+05	3.00000000e+02	1.60549506e+03	4.56255596e+06	1.57859962e+00	1.80066634e-05	3.51980681e-03	3.67119031e-12	2.98859227e-02
4.31131869e-01	1.19520001e-01	6.73828157e-03	1.31665452e+00	1.50905073e+05	3.00000000e+02	1.52571146e+03	4.45716603e+06	1.54740907e+00	1.80159584e-05	3.41523032e-03	3.78430219e-12	2.91616885e-02
4.30062726e-01	1.19520001e-01	6.73828158e-03	1.30201822e+00	1.47279687e+05	3.00000000e+02	1.42291541e+03	4.19837463e+06	1.48552084e+00	1.80222790e-05	3.27223801e-03	3.36025307e-12	2.80505649e-02
4.28995937e-01	1.19520001e-01	6.73828158e-03	1.23580560e+00	1.37447188e+05	3.00000000e+02	1.34592807e+03	3.88963559e+06	1.40794351e+00	1.80173602e-05	3.11397534e-03	2.64138340e-12	2.66904473e-02
4.27931518e-01	1.19520001e-01	6.73828157e-03	1.13253388e+00	1.24451103e+05	3.00000000e+02	1.34398738e+03	3.67213935e+06	1.34728895e+00	1.80116224e-05	3.05130218e-03	2.12148498e-12	2.59376122e-02
4.26869452e-01	1.19520001e-01	6.73828157e-03	1.04477407e+00	1.13789522e+05	3.00000000e+02	1.42304608e+03	3.45974216e+06	1.33010382e+00	1.80312369e-05	3.23118977e-03	2.15930741e-12	2.69816115e-02
4.25809741e-01	1.19520001e-01	6.73828158e-03	1.02940584e+00	1.12211413e+05	3.00000000e+02	1.50540614e+03	3.46455894e+06	1.35920069e+00	1.80146967e-05	3.65487209e-03	3.16287573e-12	2.98605301e-02
4.24752400e-01	1.19520001e-01	6.73828158e-03	1.02220382e+00	1.12524415e+05	3.00000000e+02	1.49257097e+03	3.56197230e+06	1.34773638e+00	1.80269261e-05	4.32393275e-03	4.52951351e-12	3.48616223e-02
4.45249379e-01	1.19520001e-01	6.15234417e-03	1.36383387e+00	1.63681632e+05	3.00000000e+02	1.31629057e+03	4.94113065e+06	1.46879766e+00	1.79425858e-05	1.07514641e-02	1.60969535e-11	8.49874360e-02
4.44148869e-01	1.19520001e-01	6.15234417e-03	1.39168829e+00	1.69129348e+05	3.00000000e+02	1.19026262e+03	5.08405578e+06	1.41112719e+00	1.79397592e-05	1.25089148e-02	2.19583994e-11	9.75362430e-02
4.43050816e-01	1.19520001e-01	6.15234417e-03	1.41055312e+00	1.73460977e+05	3.00000000e+02	1.04858937e+03	5.19366781e+06	1.33336792e+00	1.79406358e-05	1.44935451e-02	2.95997722e-11	1.11287535e-01
4.41955209e-01	1.19520001e-01	6.15234417e-03	1.40904075e+00	1.75279358e+05	3.00000000e+02	9.14183509e+02	5.29497862e+06	1.24443838e+00	1.79388854e-05	1.64652385e-02	3.88196817e-11	1.24574976e-01
4.40862015e-01	1.19520001e-01	6.15234417e-03	1.38907730e+00	1.73713118e+05	3.00000000e+02	8.34103919e+02	5.31107943e+06	1.18036108e+00	1.79369581e-05	1.76745714e-02	4.45269746e-11	1.32497029e-01
4.39771249e-01	1.19520001e-01	6.15234417e-03	1.36522826e+00	1.70026257e+05	3.00000000e+02	8.35562304e+02	5.21523997e+06	1.17101353e+00	1.79399210e-05	1.75188146e-02	4.31185641e-11	1.31235577e-01
4.38682899e-01	1.19520001e-01	6.15234417e-03	1.34958940e+00	1.66157737e+05	3.00000000e+02	8.97407138e+02	5.06200063e+06	1.20636844e+00	1.79434525e-05	1.60509327e-02	3.49265477e-11	1.21272058e-01
4.37596961e-01	1.19520001e-01	6.15234417e-03	1.34317846e+00	1.62632504e+05	3.00000000e+02	9.79064963e+02	4.86493850e+06	1.25659338e+00	1.79501562e-05	1.37364370e-02	2.44939644e-11	1.05240259e-01
4.36513453e-01	1.19520001e-01	6.15234417e-03	1.32624004e+00	1.57558947e+05	3.00000000e+02	1.06692098e+03	4.62694588e+06	1.30327825e+00	1.79527272e-05	1.14034817e-02	1.49617676e-11	8.87500452e-02
4.35432360e-01	1.19520001e-01	6.15234417e-03	1.29474694e+00	1.52044703e+05	3.00000000e+02	1.17541077e+03	4.50672923e+06	1.35105841e+00	1.79598845e-05	9.67208443e-03	1.01380010e-11	7.60177734e-02
4.34353665e-01	1.19520001e-01	6.15234417e-03	1.26733673e+00	1.48326467e+05	3.00000000e+02	1.26964240e+03	4.49717139e+06	1.38866336e+00	1.79671886e-05	8.79409147e-03	9.06675351e-12	6.93167642e-02
4.33277354e-01	1.19520001e-01	6.15234417e-03	1.25990722e+00	1.47966625e+05	3.00000000e+02	1.32578726e+03	4.59175863e+06	1.41463289e+00	1.79701969e-05	8.49159081e-03	1.00215562e-11	6.69127380e-02
4.32203412e-01	1.19520001e-01	6.15234417e-03	1.27062646e+00	1.49907505e+05	3.00000000e+02	1.32130476e+03	4.68623252e+06	1.41791441e+00	1.79742516e-05	8.45605074e-03	1.18571373e-11	6.64315502e-02
4.31131869e-01	1.19520001e-01	6.15234417e-03	1.28109279e+00	1.51310188e+05	3.00000000e+02	1.26221828e+03	4.69945500e+06	1.39125661e+00	1.79779707e-05	8.48858999e-03	1.33913407e-11	6.64305901e-02
4.30062726e-01	1.19520001e-01	6.15234417e-03	1.27123793e+00	1.49381361e+05	3.00000000e+02	1.17665809e+03	4.58015004e+06	1.33770315e+00	1.79832921e-05	8.46236417e-03	1.32347944e-11	6.59260123e-02
4.28995937e-01	1.19520001e-01	6.15234417e-03	1.22488753e+00	1.41891033e+05	3.00000000e+02	1.09947464e+03	4.27163366e+06	1.26846615e+00	1.79950152e-05	8.31238400e-03	1.08429627e-11	6.44131068e-02
4.27931518e-01	1.19520001e-01	6.15234417e-03	1.13585625e+00	1.29134463e+05	3.00000000e+02	1.08318436e+03	3.87321243e+06	1.21178748e+00	1.80043232e-05	8.20190402e-03	8.14752458e-12	6.32813010e-02
4.26869452e-01	1.19520001e-01	6.15234417e-03	1.03978380e+00	1.17654147e+05	3.00000000e+02	1.15984301e+03	3.73505043e+06	1.20013166e+00	1.79983469e-05	8.57528934e-03	7.81616626e-12	6.57902422e-02
4.25809741e-01	1.19520001e-01	6.15234417e-03	9.89891883e-01	1.12684331e+05	3.00000000e+02	1.22524034e+03	3.74571144e+06	1.20309150e+00	1.80051295e-05	9.59107041e-03	9.94710132e-12	7.25051368e-02
4.24752399e-01	1.19520001e-01	6.15234417e-03	9.67706442e-01	1.11804323e+05	3.00000000e+02	1.22991426e+03	3.87999349e+06	1.19159194e+00	1.80082729e-05	1.13359216e-02	1.38034454e-11	8.42296439e-02
4.45249379e-01	1.19520001e-01	5.56640653e-03	1.30454702e+00	1.61844517e+05	3.00000000e+02	9.91257770e+02	5.03043183e+06	1.24730540e+00	1.79324964e-05	1.85656792e-02	2.08180583e-11	1.38690674e-01
4.44148868e-01	1.19520001e-01	5.56640653e-03	1.31964123e+00	1.66713121e+05	3.00000000e+02	8.93576283e+02	5.26156797e+06	1.19121444e+00	1.79305739e-05	2.08055721e-02	2.69275753e-11	1.52557064e-01
4.43050817e-01	1.19520001e-01	5.56640653e-03	1.32368502e+00	1.70025077e+05	3.00000000e+02	7.91401783e+02	5.45522721e+06	1.12320509e+00	1.79234727e-05	2.30602218e-02	3.36500688e-11	1.65833916e-01
4.41955208e-01	1.19520001e-01	5.56640653e-03	1.31341580e+00	1.71090999e+05	3.00000000e+02	7.05846174e+02	5.61070849e+06	1.05708714e+00	1.79157810e-05	2.50169562e-02	4.23667833e-11	1.76553318e-01
4.40862015e-01	1.19520001e-01	5.56640653e-03	1.29569724e+00	1.69858329e+05	3.00000000e+02	6.50399537e+02	5.63001686e+06	1.00819564e+00	1.79096644e-05	2.62829014e-02	5.01756345e-11	1.83067810e-01
4.39771249e-01	1.19520001e-01	5.56640653e-03	1.28177471e+00	1.67458856e+05	3.00000000e+02	6.18496362e+02	5.47041755e+06	9.77996902e-01	1.79071854e-05	2.67160956e-02	5.17542396e-11	1.85185979e-01
4.38682898e-01	1.19520001e-01	5.56640653e-03	1.28084868e+00	1.65222048e+05	3.00000000e+02	6.00378340e+02	5.16545353e+06	9.63003382e-01	1.79111715e-05	2.62111361e-02	4.76426356e-11	1.82488322e-01
4.37596961e-01	1.19520001e-01	5.56640653e-03	1.27808923e+00	1.63342597e+05	3.00000000e+02	6.20498592e+02	5.08961262e+06	9.77327337e-01	1.79226130e-05	2.46711423e-02	4.72986038e-11	1.73831994e-01
4.36513453e-01	1.19520001e-01	5.56640653e-03	1.26892339e+00	1.60446618e+05	3.00000000e+02	6.82397389e+02	5.05455663e+06	1.02046494e+00	1.79361272e-05	2.23975356e-02	3.93039686e-11	1.60341541e-01
4.35432360e-01	1.19520001e-01	5.56640653e-03	1.24760842e+00	1.56192359e+05	3.00000000e+02	7.90571141e+02	5.04430704e+06	1.08827950e+00	1.79497978e-05	1.99990254e-02	3.14284448e-11	1.45255455e-01
4.34353665e-01	1.19520001e-01	5.56640653e-03	1.21760866e+00	1.51695394e+05	3.00000000e+02	9.11483923e+02	5.07495661e+06	1.15395867e+00	1.79567816e-05	1.83672525e-02	2.86672122e-11	1.34508550e-01
4.33277354e-01	1.19520001e-01	5.56640653e-03	1.20100435e+00	1.49739889e+05	3.00000000e+02	9.85340628e+02	5.14853394e+06	1.19133880e+00	1.79605893e-05	1.77215099e-02	3.00066032e-11	1.30013000e-01
4.32203412e-01	1.19520001e-01	5.56640653e-03	1.20000668e+00	1.50339381e+05	3.00000000e+02	9.83616129e+02	5.25247269e+06	1.18958388e+00	1.79638727e-05	1.77999233e-02	3.42393468e-11	1.30120647e-01
4.31131869e-01	1.19520001e-01	5.56640653e-03	1.20259947e+00	1.51103559e+05	3.00000000e+02	9.14194993e+02	5.26749571e+06	1.14781701e+00	1.79679137e-05	1.82601515e-02	3.80047256e-11	1.32552921e-01
4.30062726e-01	1.19520001e-01	5.56640653e-03	1.19389185e+00	1.49709312e+05	3.00000000e+02	8.14489937e+02	5.14509470e+06	1.07932756e+00	1.79705957e-05	1.87666305e-02	3.75584658e-11	1.35170345e-01
4.28995937e-01	1.19520001e-01	5.56640653e-03	1.16033027e+00	1.44091583e+05	3.00000000e+02	7.30719210e+02	4.84170223e+06	1.00744790e+00	1.79776890e-05	1.90363350e-02	3.08921021e-11	1.36025196e-01
4.27931518e-01	1.19520001e-01	5.56640653e-03	1.08777506e+00	1.33099188e+05	3.00000000e+02	7.17943801e+02	4.43403751e+06	9.66517256e-01	1.79843831e-05	1.90600718e-02	2.17779197e-11	1.35330194e-01
4.26869452e-01	1.19520001e-01	5.56640653e-03	9.93582280e-01	1.21002495e+05	3.00000000e+02	8.08648335e+02	4.22241939e+06	9.80126243e-01	1.79883005e-05	1.95803257e-02	1.72640348e-11	1.37616893e-01
4.25809741e-01	1.19520001e-01	5.56640653e-03	9.22224574e-01	1.13782859e+05	3.00000000e+02	9.06231201e+02	4.26889579e+06	9.99561453e-01	1.79894852e-05	2.16201571e-02	1.87178918e-11	1.48487162e-01
4.45249379e-01	1.19520001e-01	4.98046889e-03	1.23807475e+00	1.60551302e+05	3.00000000e+02	8.43596190e+02	5.25598474e+06	1.12260147e+00	1.79062860e-05	2.67355277e-02	2.08651192e-11	1.85439464e-01