VARIABLES ="X" "Y" "Z" "rho" "press" "temp" "tau_wall" "qdot" "yplus" "muLam" "ZMean" "ZVar" "CMean" 
Zone T ="wall" I = 8632 , F = point
3.98084551e-01	1.29320011e-01	4.31332365e-04	1.09678514e+00	1.11355697e+05	3.00000000e+02	1.73275036e+03	3.30572543e+06	1.13193932e+00	1.80817820e-05	-2.39652755e-91	-1.12215476e-98	8.78621285e-91
3.98763859e-01	1.29320011e-01	3.76781197e-04	1.09486850e+00	1.11107417e+05	3.00000000e+02	1.72942232e+03	3.29494231e+06	1.12986323e+00	1.80817820e-05	-9.70467017e-90	-4.87395649e-97	2.78740115e-89
3.98990275e-01	1.29320011e-01	8.87797211e-03	1.09422715e+00	1.11024723e+05	3.00000000e+02	1.72826729e+03	3.29140301e+06	1.12915501e+00	1.80817820e-05	-7.21792252e-77	-2.22969904e-84	1.29054893e-76
3.98157331e-01	1.29320011e-01	8.89711205e-03	1.09658945e+00	1.11330170e+05	3.00000000e+02	1.73237934e+03	3.30459087e+06	1.13171715e+00	1.80817820e-05	-9.53896937e-79	-2.80583931e-86	1.91088564e-78
3.98157350e-01	1.29320011e-01	7.93788339e-03	1.09658935e+00	1.11330159e+05	3.00000000e+02	1.73237961e+03	3.30459065e+06	1.13171718e+00	1.80817820e-05	-2.89833707e-78	-9.58619502e-86	5.04950165e-78
3.98156469e-01	1.29320011e-01	6.97306857e-03	1.09659169e+00	1.11330460e+05	3.00000000e+02	1.73238286e+03	3.30460338e+06	1.13171945e+00	1.80817820e-05	-2.49686153e-78	-9.39486655e-86	3.81113109e-78
3.98147231e-01	1.29320011e-01	6.00566947e-03	1.09661608e+00	1.11333655e+05	3.00000000e+02	1.73243055e+03	3.30474756e+06	1.13174762e+00	1.80817820e-05	-5.13801001e-80	-2.00091133e-87	8.67593748e-80
3.98128521e-01	1.29320011e-01	5.04379655e-03	1.09666636e+00	1.11340214e+05	3.00000000e+02	1.73252408e+03	3.30503913e+06	1.13180411e+00	1.80817820e-05	-6.50526024e-82	-2.67057821e-89	1.21347503e-81
3.98108284e-01	1.29320011e-01	4.09326380e-03	1.09672068e+00	1.11347324e+05	3.00000000e+02	1.73262860e+03	3.30535900e+06	1.13186628e+00	1.80817820e-05	-7.09103628e-84	-3.06734962e-91	1.45988136e-83
3.98094881e-01	1.29320011e-01	3.15140987e-03	1.09675603e+00	1.11351929e+05	3.00000000e+02	1.73269364e+03	3.30556270e+06	1.13190577e+00	1.80817820e-05	-7.50601479e-86	-3.37020810e-93	1.71384071e-85
3.98082872e-01	1.29320011e-01	2.22717910e-03	1.09678741e+00	1.11356010e+05	3.00000000e+02	1.73275257e+03	3.30574228e+06	1.13194121e+00	1.80817820e-05	-8.69415631e-88	-4.00228351e-95	2.24386584e-87
3.98072531e-01	1.29320011e-01	1.32236159e-03	1.09682018e+00	1.11360094e+05	3.00000000e+02	1.73278485e+03	3.30589408e+06	1.13196866e+00	1.80817820e-05	-1.20953569e-89	-5.72630958e-97	3.63952771e-89
3.98740624e-01	1.29320011e-01	1.15437550e-03	1.09497484e+00	1.11120075e+05	3.00000000e+02	1.72947290e+03	3.29531724e+06	1.12993464e+00	1.80817820e-05	-4.92732779e-88	-2.54070567e-95	1.21109355e-87
3.98992297e-01	1.29320011e-01	7.87554372e-03	1.09422017e+00	1.11023844e+05	3.00000000e+02	1.72825541e+03	3.29136889e+06	1.12914752e+00	1.80817820e-05	-2.50336618e-76	-8.53708703e-84	3.88155596e-76
3.98989360e-01	1.29320011e-01	6.84723543e-03	1.09423067e+00	1.11025077e+05	3.00000000e+02	1.72824832e+03	3.29140253e+06	1.12915063e+00	1.80817820e-05	-2.40771941e-76	-9.33940454e-84	3.27037934e-76
3.98956795e-01	1.29320011e-01	5.80774781e-03	1.09432460e+00	1.11037253e+05	3.00000000e+02	1.72843806e+03	3.29193419e+06	1.12926107e+00	1.80817820e-05	-3.55425764e-78	-1.43636404e-85	5.31160210e-78
3.98894045e-01	1.29320011e-01	4.79219082e-03	1.09450766e+00	1.11060720e+05	3.00000000e+02	1.72874929e+03	3.29291720e+06	1.12945719e+00	1.80817820e-05	-3.43831651e-80	-1.49332442e-87	5.60479003e-80
3.98834125e-01	1.29320011e-01	3.82109993e-03	1.09468168e+00	1.11083124e+05	3.00000000e+02	1.72905883e+03	3.29387069e+06	1.12964810e+00	1.80817820e-05	-3.23241580e-82	-1.50484331e-89	5.71961124e-82
3.98803442e-01	1.29320011e-01	2.87505281e-03	1.09477057e+00	1.11094539e+05	3.00000000e+02	1.72920437e+03	3.29435174e+06	1.12974151e+00	1.80817820e-05	-3.21862905e-84	-1.57278300e-91	6.21148885e-84
3.98772866e-01	1.29320011e-01	1.98281551e-03	1.09486286e+00	1.11106196e+05	3.00000000e+02	1.72933930e+03	3.29481215e+06	1.12983319e+00	1.80817820e-05	-3.63696668e-86	-1.82150129e-93	7.85318426e-86
3.99830293e-01	1.29320011e-01	6.70386293e-03	1.09159910e+00	1.10690732e+05	3.00000000e+02	1.72412228e+03	3.27783728e+06	1.12644502e+00	1.80817820e-05	-2.38704902e-74	-9.42084198e-82	2.91274624e-74
3.99760412e-01	1.29320011e-01	5.56079445e-03	1.09182423e+00	1.10719443e+05	3.00000000e+02	1.72448151e+03	3.27902225e+06	1.12667845e+00	1.80817820e-05	-2.33579087e-76	-9.66642338e-84	3.12772380e-76
3.99626007e-01	1.29320011e-01	4.48645354e-03	1.09225394e+00	1.10773839e+05	3.00000000e+02	1.72516470e+03	3.28120057e+06	1.12712338e+00	1.80817820e-05	-1.63441165e-78	-7.47545602e-86	2.34676234e-78
3.99366003e-01	1.29320011e-01	3.20609185e-04	1.09303535e+00	1.10873303e+05	3.00000000e+02	1.72644603e+03	3.28526762e+06	1.12794514e+00	1.80817820e-05	-2.68814319e-88	-1.49295598e-95	6.68503068e-88
3.99813265e-01	1.29320011e-01	8.86223657e-03	1.09165180e+00	1.10697520e+05	3.00000000e+02	1.72421164e+03	3.27812838e+06	1.12650136e+00	1.80817820e-05	-5.03175475e-75	-1.65828473e-82	8.08513770e-75
3.99358844e-01	1.29320011e-01	9.82319825e-04	1.09315580e+00	1.10886679e+05	3.00000000e+02	1.72640259e+03	3.28550069e+06	1.12799311e+00	1.80817820e-05	-1.53354731e-86	-8.54312818e-94	3.24787050e-86
3.99825602e-01	1.29320011e-01	7.81824577e-03	1.09161019e+00	1.10692289e+05	3.00000000e+02	1.72415238e+03	3.27792446e+06	1.12646053e+00	1.80817820e-05	-2.07810700e-74	-7.29832209e-82	2.88643052e-74
3.99448470e-01	1.29320011e-01	1.71356297e-03	1.09283530e+00	1.10846483e+05	3.00000000e+02	1.72595114e+03	3.28395420e+06	1.12768023e+00	1.80817820e-05	-1.42472150e-84	-7.39121596e-92	2.66867396e-84
4.00701928e-01	1.29320011e-01	6.54153445e-03	1.08844090e+00	1.10296687e+05	3.00000000e+02	1.71980674e+03	3.26292802e+06	1.12340571e+00	1.80817820e-05	-2.42646070e-72	-9.67565971e-80	2.66858013e-72
4.00625823e-01	1.29320011e-01	8.85650859e-03	1.08875211e+00	1.10335095e+05	3.00000000e+02	1.72019988e+03	3.26431605e+06	1.12369468e+00	1.80817820e-05	-3.32489866e-73	-1.20122669e-80	4.84403727e-73
4.00659207e-01	1.29320011e-01	7.78960319e-03	1.08861076e+00	1.10317800e+05	3.00000000e+02	1.72004642e+03	3.26371570e+06	1.12357162e+00	1.80817820e-05	-1.60693186e-72	-5.92209972e-80	2.00516402e-72
4.01426319e-01	1.29320011e-01	8.86874864e-03	1.08544030e+00	1.09926461e+05	3.00000000e+02	1.71606427e+03	3.24952461e+06	1.12063482e+00	1.80817820e-05	-2.53348413e-71	-9.68474117e-79	3.29557798e-71
4.01483184e-01	1.29320011e-01	7.83573494e-03	1.08515380e+00	1.09891654e+05	3.00000000e+02	1.71576137e+03	3.24835080e+06	1.12038802e+00	1.80817820e-05	-1.17807417e-70	-4.74664911e-78	1.30955737e-70
3.99522936e-01	1.29320011e-01	3.51580643e-03	1.09258749e+00	1.10815902e+05	3.00000000e+02	1.72564898e+03	3.28285822e+06	1.12745365e+00	1.80817820e-05	-1.38107079e-80	-6.83161124e-88	2.11891336e-80
3.99887749e-01	1.29320011e-01	2.64434756e-04	1.09132207e+00	1.10656975e+05	3.00000000e+02	1.72385450e+03	3.27669573e+06	1.12621458e+00	1.80817820e-05	-3.78808110e-87	-2.31382525e-94	8.52038358e-87
3.99891365e-01	1.29320011e-01	8.00501255e-04	1.09147085e+00	1.10673232e+05	3.00000000e+02	1.72380476e+03	3.27693177e+06	1.12627509e+00	1.80817820e-05	-2.01375403e-85	-1.25473733e-92	3.83509716e-85
4.00149515e-01	1.29320011e-01	3.21801778e-03	1.09051130e+00	1.10553914e+05	3.00000000e+02	1.72254063e+03	3.27249114e+06	1.12536701e+00	1.80817820e-05	-5.22609691e-79	-2.76692656e-86	7.02523176e-79
3.99502698e-01	1.29320011e-01	2.55761362e-03	1.09265596e+00	1.10824243e+05	3.00000000e+02	1.72571498e+03	3.28313908e+06	1.12751058e+00	1.80817820e-05	-1.46376495e-82	-7.53488730e-90	2.42730226e-82
4.00565142e-01	1.29320011e-01	5.23499568e-03	1.08894616e+00	1.10359268e+05	3.00000000e+02	1.72042524e+03	3.26522637e+06	1.12386839e+00	1.80817820e-05	-1.40579401e-74	-5.87705239e-82	1.70542334e-74
4.00295727e-01	1.29320011e-01	4.10975821e-03	1.08997596e+00	1.10487785e+05	3.00000000e+02	1.72190343e+03	3.27009870e+06	1.12488266e+00	1.80817820e-05	-6.41132863e-77	-3.14847972e-84	8.12785901e-77
4.00333835e-01	1.29320011e-01	2.19278185e-04	1.08975696e+00	1.10460809e+05	3.00000000e+02	1.72159854e+03	3.26913480e+06	1.12467010e+00	1.80817820e-05	-1.61414479e-86	-1.00534007e-93	3.89086952e-86
4.00713803e-01	1.29320011e-01	1.91643173e-04	1.08834309e+00	1.10284623e+05	3.00000000e+02	1.71964325e+03	3.26249294e+06	1.12330185e+00	1.80817820e-05	-4.35439576e-86	-2.73289301e-93	1.14545626e-85
4.01041425e-01	1.29320011e-01	1.74785554e-04	1.08705259e+00	1.10124595e+05	3.00000000e+02	1.71793184e+03	3.25657441e+06	1.12207692e+00	1.80817820e-05	-8.93307366e-86	-5.65443392e-93	2.58510739e-85
4.01326875e-01	1.29320011e-01	1.62980309e-04	1.08586718e+00	1.09978255e+05	3.00000000e+02	1.71641660e+03	3.25125834e+06	1.12097027e+00	1.80817820e-05	-1.53321979e-85	-9.83959947e-93	4.89305013e-85
4.01577240e-01	1.29320011e-01	1.53746752e-04	1.08478009e+00	1.09844475e+05	3.00000000e+02	1.71505797e+03	3.24645884e+06	1.11996546e+00	1.80817820e-05	-2.33763401e-85	-1.52900072e-92	8.21183660e-85
4.01798611e-01	1.29320011e-01	1.46214405e-04	1.08378888e+00	1.09722520e+05	3.00000000e+02	1.71375170e+03	3.24208051e+06	1.11902691e+00	1.80817820e-05	-3.29483517e-85	-2.20772702e-92	1.27007767e-84
4.01802280e-01	1.29320011e-01	4.30387848e-04	1.08387356e+00	1.09734424e+05	3.00000000e+02	1.71437260e+03	3.24275059e+06	1.11927524e+00	1.80817820e-05	-6.10930582e-84	-3.46157729e-91	2.01364484e-83
4.01825407e-01	1.29320011e-01	7.14308794e-04	1.08375126e+00	1.09718794e+05	3.00000000e+02	1.71384415e+03	3.24210228e+06	1.11903589e+00	1.80817820e-05	-1.05175953e-82	-4.78108759e-90	2.93648500e-82
4.01864389e-01	1.29320011e-01	9.96278638e-04	1.08357483e+00	1.09696590e+05	3.00000000e+02	1.71390047e+03	3.24120740e+06	1.11896795e+00	1.80817820e-05	-1.46826348e-81	-4.93071260e-89	3.23854471e-81
4.01916858e-01	1.29320011e-01	1.27666037e-03	1.08334449e+00	1.09668426e+05	3.00000000e+02	1.71317780e+03	3.24024074e+06	1.11860730e+00	1.80817820e-05	-6.99895989e-81	-3.40197449e-88	1.42947885e-80
4.01982431e-01	1.29320011e-01	1.55635410e-03	1.08303545e+00	1.09630013e+05	3.00000000e+02	1.71315880e+03	3.23877535e+06	1.11844776e+00	1.80817820e-05	-8.58976787e-80	-5.48446930e-87	1.56356353e-79
4.00331847e-01	1.29320011e-01	6.51792460e-04	1.08995052e+00	1.10483080e+05	3.00000000e+02	1.72171122e+03	3.26967000e+06	1.12480674e+00	1.80817820e-05	-6.21967791e-85	-3.87306146e-92	1.29251757e-84
4.00697026e-01	1.29320011e-01	5.69093605e-04	1.08858779e+00	1.10314006e+05	3.00000000e+02	1.71996087e+03	3.26341961e+06	1.12353183e+00	1.80817820e-05	-1.32692120e-84	-8.12570585e-92	3.04906924e-84
4.01015860e-01	1.29320011e-01	5.20769240e-04	1.08732178e+00	1.10157646e+05	3.00000000e+02	1.71838097e+03	3.25774351e+06	1.12236250e+00	1.80817820e-05	-2.28880773e-84	-1.37181794e-91	5.82128742e-84
4.01302360e-01	1.29320011e-01	4.85786490e-04	1.08612302e+00	1.10009945e+05	3.00000000e+02	1.71689743e+03	3.25242797e+06	1.12125938e+00	1.80817820e-05	-3.43555067e-84	-2.01667506e-91	9.61482052e-84
4.01562979e-01	1.29320011e-01	4.56683981e-04	1.08497917e+00	1.09869326e+05	3.00000000e+02	1.71547903e+03	3.24740898e+06	1.12020600e+00	1.80817820e-05	-4.71764712e-84	-2.71616923e-91	1.43948294e-83
4.01576131e-01	1.29320011e-01	7.57570889e-04	1.08488222e+00	1.09857986e+05	3.00000000e+02	1.71552396e+03	3.24710179e+06	1.12017009e+00	1.80817820e-05	-9.14485878e-83	-4.34892291e-90	2.42959540e-82
4.01607475e-01	1.29320011e-01	1.05460224e-03	1.08476375e+00	1.09841682e+05	3.00000000e+02	1.71500484e+03	3.24622760e+06	1.11993988e+00	1.80817820e-05	-1.45221384e-81	-4.99819752e-89	3.13650370e-81
4.01649183e-01	1.29320011e-01	1.35152728e-03	1.08456622e+00	1.09818987e+05	3.00000000e+02	1.71512161e+03	3.24568298e+06	1.11987551e+00	1.80817820e-05	-5.71086741e-81	-2.56049961e-88	1.14248039e-80
4.01700503e-01	1.29320011e-01	1.65466373e-03	1.08436220e+00	1.09791426e+05	3.00000000e+02	1.71433088e+03	3.24428203e+06	1.11951243e+00	1.80817820e-05	-5.63635469e-80	-3.52376985e-87	9.58986978e-80
4.01311667e-01	1.29320011e-01	8.02407610e-04	1.08605020e+00	1.10000977e+05	3.00000000e+02	1.71684588e+03	3.25210611e+06	1.12120485e+00	1.80817820e-05	-7.65893966e-83	-3.84246266e-90	1.90874017e-82
4.01339950e-01	1.29320011e-01	1.10971827e-03	1.08594033e+00	1.09986788e+05	3.00000000e+02	1.71657078e+03	3.25148609e+06	1.12105833e+00	1.80817820e-05	-1.43548174e-81	-5.24766796e-89	3.01172372e-81
4.01369472e-01	1.29320011e-01	1.41848190e-03	1.08581359e+00	1.09971260e+05	3.00000000e+02	1.71643485e+03	3.25094120e+06	1.12094847e+00	1.80817820e-05	-4.75567189e-81	-2.04528242e-88	9.33879006e-81
4.01398105e-01	1.29320011e-01	1.74520517e-03	1.08569938e+00	1.09956415e+05	3.00000000e+02	1.71615152e+03	3.25027729e+06	1.12079702e+00	1.80817820e-05	-3.24585682e-80	-1.96526109e-87	5.24260503e-80
4.01445442e-01	1.29320011e-01	2.09890241e-03	1.08548741e+00	1.09930713e+05	3.00000000e+02	1.71599913e+03	3.24941956e+06	1.12063779e+00	1.80817820e-05	-1.05387726e-78	-6.26440303e-86	1.53905769e-78
4.01528179e-01	1.29320011e-01	2.47246120e-03	1.08511734e+00	1.09885275e+05	3.00000000e+02	1.71550599e+03	3.24780639e+06	1.12028578e+00	1.80817820e-05	-4.42107179e-77	-2.39054325e-84	6.13719532e-77
3.99999583e-01	1.29320011e-01	1.36280784e-03	1.09107221e+00	1.10623165e+05	3.00000000e+02	1.72323821e+03	3.27498778e+06	1.12588432e+00	1.80817820e-05	-1.73591050e-83	-1.03056370e-90	2.96261196e-83
4.00408432e-01	1.29320011e-01	1.04626203e-03	1.08965940e+00	1.10446130e+05	3.00000000e+02	1.72127364e+03	3.26816840e+06	1.12451358e+00	1.80817820e-05	-3.01268635e-83	-1.74865991e-90	5.68167362e-83
4.00734948e-01	1.29320011e-01	9.14404602e-04	1.08842439e+00	1.10293423e+05	3.00000000e+02	1.71973587e+03	3.26260653e+06	1.12337403e+00	1.80817820e-05	-4.47873966e-83	-2.50025744e-90	9.36748110e-83
4.01031568e-01	1.29320011e-01	8.51016215e-04	1.08723363e+00	1.10146464e+05	3.00000000e+02	1.71826331e+03	3.25728827e+06	1.12227857e+00	1.80817820e-05	-6.09145470e-83	-3.22886948e-90	1.40117881e-82
4.01068564e-01	1.29320011e-01	1.15715748e-03	1.08708389e+00	1.10127927e+05	3.00000000e+02	1.71802641e+03	3.25660703e+06	1.12212393e+00	1.80817820e-05	-1.40472265e-81	-5.55495526e-89	2.82874941e-81
4.01083480e-01	1.29320011e-01	1.46543269e-03	1.08702403e+00	1.10120066e+05	3.00000000e+02	1.71787138e+03	3.25624368e+06	1.12204235e+00	1.80817820e-05	-3.95489100e-81	-1.72714110e-88	7.54406079e-81
4.01069108e-01	1.29320011e-01	1.81262047e-03	1.08708102e+00	1.10126675e+05	3.00000000e+02	1.71789267e+03	3.25641260e+06	1.12207872e+00	1.80817820e-05	-1.55561903e-80	-8.89571509e-88	2.45200240e-80
4.01079290e-01	1.29320011e-01	2.22562523e-03	1.08703478e+00	1.10121081e+05	3.00000000e+02	1.71786494e+03	3.25622872e+06	1.12204577e+00	1.80817820e-05	-5.28334573e-79	-3.13625437e-86	7.20431703e-79
4.01149426e-01	1.29320011e-01	2.69372971e-03	1.08673186e+00	1.10083987e+05	3.00000000e+02	1.71751623e+03	3.25493217e+06	1.12177561e+00	1.80817820e-05	-2.95200206e-77	-1.65068762e-84	3.76945547e-77
4.00560322e-01	1.29320011e-01	1.34204917e-03	1.08908814e+00	1.10375390e+05	3.00000000e+02	1.72050883e+03	3.26557608e+06	1.12396901e+00	1.80817820e-05	-1.53672558e-81	-6.99568403e-89	2.72777605e-81
4.00809254e-01	1.29320011e-01	1.19560533e-03	1.08813228e+00	1.10257069e+05	3.00000000e+02	1.71931290e+03	3.26124174e+06	1.12308515e+00	1.80817820e-05	-1.37150973e-81	-5.88676357e-89	2.61563005e-81
4.00806019e-01	1.29320011e-01	1.47408235e-03	1.08813753e+00	1.10257837e+05	3.00000000e+02	1.71928845e+03	3.26128966e+06	1.12307982e+00	1.80817820e-05	-3.14717771e-81	-1.45508889e-88	5.70471637e-81
4.00289741e-01	1.29320011e-01	1.72511654e-03	1.09004892e+00	1.10495872e+05	3.00000000e+02	1.72185616e+03	3.27023814e+06	1.12490487e+00	1.80817820e-05	-2.35220804e-81	-1.11462053e-88	3.88369268e-81
4.00703538e-01	1.29320011e-01	1.82775218e-03	1.08852087e+00	1.10305145e+05	3.00000000e+02	1.71974950e+03	3.26299986e+06	1.12342820e+00	1.80817820e-05	-5.91276637e-81	-3.02966461e-88	9.53260326e-81
4.00696250e-01	1.29320011e-01	2.94776482e-03	1.08852582e+00	1.10306145e+05	3.00000000e+02	1.71982352e+03	3.26310008e+06	1.12345499e+00	1.80817820e-05	-1.28925537e-77	-7.52642491e-85	1.51345206e-77
4.00646938e-01	1.29320011e-01	2.33058729e-03	1.08872987e+00	1.10331138e+05	3.00000000e+02	1.72007232e+03	3.26397202e+06	1.12364155e+00	1.80817820e-05	-1.62678560e-79	-9.63748390e-87	2.09560017e-79
4.00116600e-01	1.29320011e-01	2.38604780e-03	1.09064536e+00	1.10570096e+05	3.00000000e+02	1.72267392e+03	3.27301363e+06	1.12547975e+00	1.80817820e-05	-6.11895400e-81	-3.32361602e-88	8.94997783e-81
4.02062635e-01	1.29320011e-01	1.83557398e-03	1.08266378e+00	1.09585270e+05	3.00000000e+02	1.71237956e+03	3.23734748e+06	1.11799517e+00	1.80817820e-05	-2.11517643e-78	-1.25306304e-85	3.61713687e-78
4.02158930e-01	1.29320011e-01	2.11346276e-03	1.08218985e+00	1.09527237e+05	3.00000000e+02	1.71218358e+03	3.23528540e+06	1.11769251e+00	1.80817820e-05	-5.42870708e-77	-2.79089426e-84	8.88384416e-77
4.01768193e-01	1.29320011e-01	1.96695855e-03	1.08402966e+00	1.09753242e+05	3.00000000e+02	1.71451246e+03	3.24336718e+06	1.11939971e+00	1.80817820e-05	-1.61744335e-78	-9.59516161e-86	2.54875161e-78
4.01858618e-01	1.29320011e-01	2.28561835e-03	1.08362982e+00	1.09702095e+05	3.00000000e+02	1.71348035e+03	3.24120274e+06	1.11885646e+00	1.80817820e-05	-5.25141090e-77	-2.76018408e-84	7.92341210e-77
4.01974461e-01	1.29320011e-01	2.60500679e-03	1.08306085e+00	1.09634765e+05	3.00000000e+02	1.71332110e+03	3.23922717e+06	1.11851076e+00	1.80817820e-05	-1.62929189e-75	-7.06482050e-83	2.38620822e-75
4.01654985e-01	1.29320011e-01	2.84941335e-03	1.08454825e+00	1.09815506e+05	3.00000000e+02	1.71484807e+03	3.24534515e+06	1.11977729e+00	1.80817820e-05	-1.99073687e-75	-9.17067682e-83	2.70434083e-75
4.01300970e-01	1.29320011e-01	3.20991140e-03	1.08609333e+00	1.10005243e+05	3.00000000e+02	1.71669211e+03	3.25208518e+06	1.12117691e+00	1.80817820e-05	-2.18423311e-75	-1.08280746e-82	2.71656429e-75
4.00864898e-01	1.29320011e-01	3.66567551e-03	1.08785257e+00	1.10222913e+05	3.00000000e+02	1.71895369e+03	3.26006664e+06	1.12282346e+00	1.80817820e-05	-1.79238475e-75	-9.75334555e-83	2.00456815e-75
4.01193100e-01	1.29320011e-01	4.63185826e-03	1.08649629e+00	1.10055852e+05	3.00000000e+02	1.71728348e+03	3.25406741e+06	1.12157801e+00	1.80817820e-05	-4.82024885e-73	-2.29070229e-80	5.27953261e-73
4.02224705e-01	1.29320011e-01	1.47375444e-03	1.08184491e+00	1.09488970e+05	3.00000000e+02	1.71191173e+03	3.23460168e+06	1.11742620e+00	1.80817820e-05	-1.15531566e-79	-7.55761962e-87	2.26506239e-79
4.02430584e-01	1.29320011e-01	1.41277460e-03	1.08088890e+00	1.09365608e+05	3.00000000e+02	1.71007987e+03	3.22919851e+06	1.11633128e+00	1.80817820e-05	-1.46842763e-79	-9.80671630e-87	3.11701975e-79
4.02308642e-01	1.29320011e-01	1.73212580e-03	1.08151645e+00	1.09439001e+05	3.00000000e+02	1.71058370e+03	3.23122030e+06	1.11681640e+00	1.80817820e-05	-2.53041271e-78	-1.51273035e-85	4.68063437e-78
4.02511060e-01	1.29320011e-01	1.66044691e-03	1.08045752e+00	1.09317637e+05	3.00000000e+02	1.71004761e+03	3.22831869e+06	1.11609796e+00	1.80817820e-05	-2.87828548e-78	-1.73372845e-85	5.76388219e-78
4.02703815e-01	1.29320011e-01	1.59218898e-03	1.07952101e+00	1.09201498e+05	3.00000000e+02	1.70864089e+03	3.22396278e+06	1.11515520e+00	1.80817820e-05	-3.13100334e-78	-1.90157338e-85	6.79718688e-78
4.02012793e-01	1.29320011e-01	1.35832420e-04	1.08279771e+00	1.09600726e+05	3.00000000e+02	1.71251590e+03	3.23772484e+06	1.11811172e+00	1.80817820e-05	-4.67454195e-85	-3.17889163e-92	1.98600185e-84
4.02227442e-01	1.29320011e-01	1.30216461e-04	1.08178357e+00	1.09477151e+05	3.00000000e+02	1.71128593e+03	3.23347071e+06	1.11718693e+00	1.80817820e-05	-6.35124803e-85	-4.38496891e-92	2.96006695e-84
4.02431851e-01	1.29320011e-01	1.24856096e-04	1.08080779e+00	1.09357554e+05	3.00000000e+02	1.71001581e+03	3.22922968e+06	1.11626848e+00	1.80817820e-05	-8.36968524e-85	-5.87514612e-92	4.24596302e-84
4.02626528e-01	1.29320011e-01	1.19763383e-04	1.07986411e+00	1.09242322e+05	3.00000000e+02	1.70880679e+03	3.22520836e+06	1.11538654e+00	1.80817820e-05	-1.07881508e-84	-7.73140043e-92	5.91193597e-84
4.02811920e-01	1.29320011e-01	1.14907718e-04	1.07896111e+00	1.09132191e+05	3.00000000e+02	1.70763105e+03	3.22138106e+06	1.11453647e+00	1.80817820e-05	-1.36705832e-84	-1.00741931e-91	8.04653238e-84
4.02988458e-01	1.29320011e-01	1.10277213e-04	1.07810655e+00	1.09027964e+05	3.00000000e+02	1.70647796e+03	3.21775226e+06	1.11371880e+00	1.80817820e-05	-1.70811770e-84	-1.30722240e-91	1.07691668e-83
4.02027018e-01	1.29320011e-01	4.07122208e-04	1.08278978e+00	1.09603577e+05	3.00000000e+02	1.71309060e+03	3.23846135e+06	1.11829708e+00	1.80817820e-05	-7.80015362e-84	-4.34708327e-91	2.75504779e-83
4.02241078e-01	1.29320011e-01	3.90273734e-04	1.08175778e+00	1.09475167e+05	3.00000000e+02	1.71160774e+03	3.23359799e+06	1.11727865e+00	1.80817820e-05	-9.70601051e-84	-5.34570957e-91	3.63653136e-83
4.02444929e-01	1.29320011e-01	3.74234995e-04	1.08073825e+00	1.09351843e+05	3.00000000e+02	1.71044623e+03	3.22949923e+06	1.11637304e+00	1.80817820e-05	-1.18729831e-83	-6.52249085e-91	4.67911589e-83
4.02639069e-01	1.29320011e-01	3.58952459e-04	1.07977619e+00	1.09234389e+05	3.00000000e+02	1.70918933e+03	3.22540397e+06	1.11546597e+00	1.80817820e-05	-1.43603356e-83	-7.96980820e-91	5.91940625e-83
4.02823954e-01	1.29320011e-01	3.44404666e-04	1.07886693e+00	1.09123215e+05	3.00000000e+02	1.70794030e+03	3.22149307e+06	1.11458874e+00	1.80817820e-05	-1.72273330e-83	-9.80672706e-91	7.41181181e-83
4.03000001e-01	1.29320011e-01	3.30551110e-04	1.07801353e+00	1.09018821e+05	3.00000000e+02	1.70672049e+03	3.21780620e+06	1.11374989e+00	1.80817820e-05	-2.04798496e-83	-1.21723627e-90	9.23153555e-83
4.02055425e-01	1.29320011e-01	6.77304372e-04	1.08267491e+00	1.09584693e+05	3.00000000e+02	1.71249611e+03	3.23699783e+06	1.11804020e+00	1.80817820e-05	-1.21500931e-82	-5.35578053e-90	3.52626883e-82
4.02268307e-01	1.29320011e-01	6.49273395e-04	1.08160230e+00	1.09458236e+05	3.00000000e+02	1.71163976e+03	3.23335497e+06	1.11720880e+00	1.80817820e-05	-1.39116313e-82	-6.05918760e-90	4.16326752e-82
4.02471040e-01	1.29320011e-01	6.22584942e-04	1.08060974e+00	1.09336015e+05	3.00000000e+02	1.71028056e+03	3.22892437e+06	1.11625260e+00	1.80817820e-05	-1.58654975e-82	-6.99193723e-90	4.88220284e-82
4.02664106e-01	1.29320011e-01	5.97160626e-04	1.07965147e+00	1.09219093e+05	3.00000000e+02	1.70903616e+03	3.22485842e+06	1.11535157e+00	1.80817820e-05	-1.80642698e-82	-8.25948494e-90	5.73044528e-82
4.02847963e-01	1.29320011e-01	5.72960711e-04	1.07874524e+00	1.09108529e+05	3.00000000e+02	1.70781850e+03	3.22100841e+06	1.11448614e+00	1.80817820e-05	-2.05367297e-82	-9.96148322e-90	6.76633240e-82
4.03023056e-01	1.29320011e-01	5.49909341e-04	1.07789684e+00	1.09004897e+05	3.00000000e+02	1.70662076e+03	3.21737308e+06	1.11365707e+00	1.80817820e-05	-2.32337131e-82	-1.21828843e-89	8.05501809e-82
4.02097914e-01	1.29320011e-01	9.45618300e-04	1.08244999e+00	1.09562155e+05	3.00000000e+02	1.71260218e+03	3.23703032e+06	1.11796349e+00	1.80817820e-05	-1.54214824e-81	-5.27010527e-89	3.46903770e-81
4.02309045e-01	1.29320011e-01	9.06489728e-04	1.08145906e+00	1.09436236e+05	3.00000000e+02	1.71093273e+03	3.23182908e+06	1.11690408e+00	1.80817820e-05	-1.64249450e-81	-5.94459441e-89	3.78490068e-81
4.02510108e-01	1.29320011e-01	8.69225159e-04	1.08044233e+00	1.09314643e+05	3.00000000e+02	1.70993524e+03	3.22802217e+06	1.11605345e+00	1.80817820e-05	-1.77266055e-81	-7.01555001e-89	4.23301241e-81
4.02701582e-01	1.29320011e-01	8.33740540e-04	1.07948681e+00	1.09198483e+05	3.00000000e+02	1.70875582e+03	3.22405322e+06	1.11517504e+00	1.80817820e-05	-1.93169874e-81	-8.51414931e-89	4.85731217e-81
4.02883917e-01	1.29320011e-01	7.99943011e-04	1.07858411e+00	1.09088483e+05	3.00000000e+02	1.70756089e+03	3.22024419e+06	1.11431885e+00	1.80817820e-05	-2.11521365e-81	-1.04507538e-88	5.69775875e-81
4.03057572e-01	1.29320011e-01	7.67760171e-04	1.07774018e+00	1.08985512e+05	3.00000000e+02	1.70637892e+03	3.21665045e+06	1.11349723e+00	1.80817820e-05	-2.31227982e-81	-1.28091261e-88	6.78633169e-81
4.02154397e-01	1.29320011e-01	1.21134549e-03	1.08224196e+00	1.09528892e+05	3.00000000e+02	1.71161937e+03	3.23456700e+06	1.11752947e+00	1.80817820e-05	-8.62047744e-81	-4.56513979e-88	1.82725355e-80
4.02363182e-01	1.29320011e-01	1.16122137e-03	1.08116970e+00	1.09404751e+05	3.00000000e+02	1.71098103e+03	3.23138100e+06	1.11677041e+00	1.80817820e-05	-1.06019494e-80	-6.08630692e-88	2.37018537e-80
4.02562025e-01	1.29320011e-01	1.11348793e-03	1.08020059e+00	1.09284910e+05	3.00000000e+02	1.70959683e+03	3.22694831e+06	1.11581816e+00	1.80817820e-05	-1.28556297e-80	-7.93303887e-88	3.07818387e-80
4.02751379e-01	1.29320011e-01	1.06802313e-03	1.07925808e+00	1.09170031e+05	3.00000000e+02	1.70838022e+03	3.22297061e+06	1.11493433e+00	1.80817820e-05	-1.52594490e-80	-1.00471490e-87	3.95961296e-80
4.02931697e-01	1.29320011e-01	1.02473496e-03	1.07836616e+00	1.09061404e+05	3.00000000e+02	1.70719671e+03	3.21921750e+06	1.11408743e+00	1.80817820e-05	-1.76777131e-80	-1.23540062e-87	5.01317771e-80
4.03103429e-01	1.29320011e-01	9.83505926e-04	1.07753363e+00	1.08959860e+05	3.00000000e+02	1.70602727e+03	3.21567816e+06	1.11327580e+00	1.80817820e-05	-1.99447303e-80	-1.47674388e-87	6.22658454e-80
4.02626649e-01	1.29320011e-01	1.35468736e-03	1.07989522e+00	1.09246990e+05	3.00000000e+02	1.70909875e+03	3.22551794e+06	1.11549789e+00	1.80817820e-05	-1.77289552e-79	-1.20918216e-86	4.09257354e-79
4.02813366e-01	1.29320011e-01	1.29939158e-03	1.07896706e+00	1.09134172e+05	3.00000000e+02	1.70793311e+03	3.22166202e+06	1.11463811e+00	1.80817820e-05	-2.04802196e-79	-1.42814164e-86	5.15559014e-79
4.02991176e-01	1.29320011e-01	1.24671766e-03	1.07809256e+00	1.09027628e+05	3.00000000e+02	1.70675851e+03	3.21797224e+06	1.11380312e+00	1.80817820e-05	-2.27825614e-79	-1.62750254e-86	6.26678400e-79
4.03160507e-01	1.29320011e-01	1.19655590e-03	1.07727789e+00	1.08928260e+05	3.00000000e+02	1.70559934e+03	3.21450662e+06	1.11300406e+00	1.80817820e-05	-2.45223103e-79	-1.79988089e-86	7.38575241e-79
4.02887374e-01	1.29320011e-01	1.52718694e-03	1.07861502e+00	1.09090962e+05	3.00000000e+02	1.70742215e+03	3.22011234e+06	1.11428954e+00	1.80817820e-05	-3.28303672e-78	-2.01391613e-85	7.72945281e-78
4.03062196e-01	1.29320011e-01	1.46528007e-03	1.07776325e+00	1.08987133e+05	3.00000000e+02	1.70624712e+03	3.21650511e+06	1.11346615e+00	1.80817820e-05	-3.33891241e-78	-2.07290808e-85	8.52469551e-78
4.07160220e-01	1.29320011e-01	1.51994492e-03	1.15661659e+00	1.18028603e+05	3.00000000e+02	1.66635619e+03	3.41949632e+06	1.13991638e+00	1.80817820e-05	-2.56519958e-73	5.99871514e-82	1.56342813e-73
4.07239827e-01	1.29320011e-01	1.51994499e-03	1.16477029e+00	1.18986394e+05	3.00000000e+02	1.66590991e+03	3.44324333e+06	1.14377412e+00	1.80817820e-05	-2.73738753e-73	6.99791297e-82	1.40723789e-73
4.07322780e-01	1.29320011e-01	1.55977488e-03	1.17379943e+00	1.20049975e+05	3.00000000e+02	1.66575090e+03	3.46971043e+06	1.14814395e+00	1.80817820e-05	-3.72608242e-73	9.31969302e-82	1.54843312e-73
4.07319316e-01	1.29320011e-01	1.51577917e-03	1.17340907e+00	1.20003972e+05	3.00000000e+02	1.66573290e+03	3.46857066e+06	1.14794682e+00	1.80817820e-05	-2.87030127e-73	7.92583797e-82	1.16355406e-73
4.07410302e-01	1.29320011e-01	1.59726049e-03	1.18388151e+00	1.21241496e+05	3.00000000e+02	1.66600786e+03	3.49951461e+06	1.15315342e+00	1.80817820e-05	-5.06362872e-73	1.24353026e-81	1.45298401e-73
4.07404251e-01	1.29320011e-01	1.55121322e-03	1.18316692e+00	1.21156918e+05	3.00000000e+02	1.66593841e+03	3.49739611e+06	1.15278110e+00	1.80817820e-05	-3.84877410e-73	1.04738417e-81	1.09570192e-73
4.07398483e-01	1.29320011e-01	1.50745770e-03	1.18248940e+00	1.21076779e+05	3.00000000e+02	1.66588593e+03	3.49539397e+06	1.15243284e+00	1.80817820e-05	-2.96024557e-73	8.73313635e-82	8.37653432e-74
4.07316022e-01	1.29320011e-01	1.47397176e-03	1.17304193e+00	1.19960571e+05	3.00000000e+02	1.66570178e+03	3.46747280e+06	1.14775649e+00	1.80817820e-05	-2.23616791e-73	6.67742128e-82	8.85572594e-74
4.07312892e-01	1.29320011e-01	1.43424495e-03	1.17269568e+00	1.19919633e+05	3.00000000e+02	1.66567199e+03	3.46643563e+06	1.14757683e+00	1.80817820e-05	-1.76148453e-73	5.60035481e-82	6.81615931e-74
4.07392998e-01	1.29320011e-01	1.46587977e-03	1.18184947e+00	1.21000997e+05	3.00000000e+02	1.66582897e+03	3.49348416e+06	1.15210127e+00	1.80817820e-05	-2.30293875e-73	7.24984146e-82	6.48356901e-74
4.07493606e-01	1.29320011e-01	1.58406690e-03	1.19397837e+00	1.22439053e+05	3.00000000e+02	1.66666648e+03	3.52965124e+06	1.15828931e+00	1.80817820e-05	-5.16059828e-73	1.41439292e-81	6.70276397e-74
4.07576118e-01	1.29320011e-01	1.56652947e-03	1.20443178e+00	1.23682324e+05	3.00000000e+02	1.66778079e+03	3.56094852e+06	1.16373730e+00	1.80817820e-05	-5.18345898e-73	1.68691289e-81	-2.22971214e-74
4.07485147e-01	1.29320011e-01	1.53839882e-03	1.19293759e+00	1.22315440e+05	3.00000000e+02	1.66654188e+03	3.52653793e+06	1.15774081e+00	1.80817820e-05	-3.91464543e-73	1.15468861e-81	5.42541939e-74
4.07477105e-01	1.29320011e-01	1.49500351e-03	1.19195348e+00	1.22198519e+05	3.00000000e+02	1.66642879e+03	3.52358102e+06	1.15722391e+00	1.80817820e-05	-3.00548142e-73	9.42265693e-82	4.41898832e-74
4.07565277e-01	1.29320011e-01	1.52136907e-03	1.20304496e+00	1.23517232e+05	3.00000000e+02	1.66758669e+03	3.55679987e+06	1.16299944e+00	1.80817820e-05	-3.92285091e-73	1.29875032e-81	-8.46464131e-75
4.07554979e-01	1.29320011e-01	1.47845535e-03	1.20173281e+00	1.23361554e+05	3.00000000e+02	1.66741877e+03	3.55296211e+06	1.16230651e+00	1.80817820e-05	-3.00524895e-73	1.01920534e-81	-3.88359778e-76
4.07644407e-01	1.29320011e-01	1.50016759e-03	1.21339315e+00	1.24752899e+05	3.00000000e+02	1.66918149e+03	3.58821332e+06	1.16854897e+00	1.80817820e-05	-3.87176148e-73	1.69002795e-81	-7.49722083e-74
4.07631866e-01	1.29320011e-01	1.45785262e-03	1.21174548e+00	1.24556487e+05	3.00000000e+02	1.66889248e+03	3.58330829e+06	1.16765421e+00	1.80817820e-05	-2.95974669e-73	1.19954364e-81	-4.74286708e-74