VARIABLES ="X" "Y" "Z" "rho" "press" "temp" "tau_wall" "qdot" "yplus" "muLam" "ZMean" "ZVar" "CMean" 
Zone T ="wall" I = 8632 , F = point
5.68622500e-01	1.29320011e-01	4.39453148e-03	1.88032016e+00	2.13530552e+05	3.00000000e+02	2.42546119e+03	5.76858449e+06	1.74713789e+00	1.81476953e-05	1.24332633e-03	9.53753720e-13	1.18587300e-02
5.68622500e-01	1.29320011e-01	4.98046889e-03	1.88187381e+00	2.12727608e+05	3.00000000e+02	2.43902292e+03	5.66289353e+06	1.75053320e+00	1.81705652e-05	8.88187793e-04	6.87068800e-13	8.68350221e-03
5.86769879e-01	1.29320011e-01	2.92968761e-04	2.15637742e+00	2.56141270e+05	3.00000000e+02	1.82564552e+03	6.69489843e+06	1.63509998e+00	1.80161462e-05	5.51721726e-03	2.90509624e-12	4.69487265e-02
5.85355252e-01	1.29320011e-01	2.92968761e-04	2.10589035e+00	2.48560547e+05	3.00000000e+02	1.79894343e+03	6.51610606e+06	1.60336813e+00	1.80230787e-05	5.41491116e-03	2.65210186e-12	4.60821968e-02
5.83943754e-01	1.29320011e-01	2.92968761e-04	2.02808589e+00	2.37575531e+05	3.00000000e+02	1.80734062e+03	6.31096540e+06	1.57676911e+00	1.80272993e-05	5.31634605e-03	2.45252794e-12	4.52906559e-02
5.82535386e-01	1.29320011e-01	2.92968761e-04	1.93981623e+00	2.25661517e+05	3.00000000e+02	1.83512045e+03	6.13706606e+06	1.55408008e+00	1.80249798e-05	5.22019861e-03	2.26408919e-12	4.44862743e-02
5.81130147e-01	1.29320011e-01	2.92968761e-04	1.86066186e+00	2.15102221e+05	3.00000000e+02	1.86753724e+03	5.97495986e+06	1.53528183e+00	1.80266842e-05	5.12604295e-03	2.09104362e-12	4.36688781e-02
5.79728007e-01	1.29320011e-01	2.92968761e-04	1.79742214e+00	2.06543664e+05	3.00000000e+02	1.89843625e+03	5.81882904e+06	1.52092878e+00	1.80322438e-05	5.03370615e-03	1.94039414e-12	4.27963061e-02
5.78328996e-01	1.29320011e-01	2.92968761e-04	1.74994813e+00	2.00112475e+05	3.00000000e+02	1.92562619e+03	5.69003743e+06	1.51082326e+00	1.80393346e-05	4.94316463e-03	1.80923780e-12	4.20560204e-02
5.76933116e-01	1.29320011e-01	2.92968761e-04	1.71743305e+00	1.95739964e+05	3.00000000e+02	1.95540870e+03	5.60398698e+06	1.50805331e+00	1.80417052e-05	4.85458403e-03	1.74677760e-12	4.14224053e-02
5.75540334e-01	1.29320011e-01	2.92968761e-04	1.69838572e+00	1.93134001e+05	3.00000000e+02	1.98045495e+03	5.55356342e+06	1.50921884e+00	1.80419729e-05	4.76671240e-03	1.72338005e-12	4.06986727e-02
5.74150622e-01	1.29320011e-01	2.92968761e-04	1.69124094e+00	1.92067941e+05	3.00000000e+02	2.00040241e+03	5.53745840e+06	1.51387774e+00	1.80387409e-05	4.67876388e-03	1.70494561e-12	3.99166476e-02
5.72763980e-01	1.29320011e-01	2.92968761e-04	1.69799568e+00	1.92961347e+05	3.00000000e+02	2.02441960e+03	5.56510808e+06	1.52595616e+00	1.80389850e-05	4.59071575e-03	1.71243647e-12	3.91556897e-02
5.71380437e-01	1.29320011e-01	2.92968761e-04	1.72321088e+00	1.96321026e+05	3.00000000e+02	2.06718083e+03	5.62484471e+06	1.55265955e+00	1.80475314e-05	4.50232005e-03	1.83824213e-12	3.84290624e-02
5.69999934e-01	1.29320011e-01	2.92968761e-04	1.76776217e+00	2.02450324e+05	3.00000000e+02	2.12231657e+03	5.75955351e+06	1.59288120e+00	1.80538242e-05	4.41166240e-03	2.12687008e-12	3.77320255e-02
5.68622500e-01	1.29320011e-01	2.92968761e-04	1.83323661e+00	2.11568537e+05	3.00000000e+02	2.16947256e+03	5.97235886e+06	1.64006931e+00	1.80534304e-05	4.31616797e-03	2.54148196e-12	3.69766870e-02
5.86769879e-01	1.29320011e-01	8.78906286e-04	2.15321521e+00	2.55363325e+05	3.00000000e+02	1.86417268e+03	6.65737592e+06	1.65027613e+00	1.80246055e-05	5.27434661e-03	2.83011988e-12	4.50792342e-02
5.85355252e-01	1.29320011e-01	8.78906286e-04	2.10131331e+00	2.47978127e+05	3.00000000e+02	1.84002130e+03	6.53481013e+06	1.61987366e+00	1.80223444e-05	5.17746664e-03	2.64437475e-12	4.42613136e-02
5.83943754e-01	1.29320011e-01	8.78906286e-04	2.02617440e+00	2.37440700e+05	3.00000000e+02	1.84045639e+03	6.34680111e+06	1.59050288e+00	1.80261224e-05	5.08678426e-03	2.43233789e-12	4.34119872e-02
5.82535386e-01	1.29320011e-01	8.78906287e-04	1.94279001e+00	2.25998086e+05	3.00000000e+02	1.86303706e+03	6.15052203e+06	1.56637815e+00	1.80327789e-05	5.00056529e-03	2.22672414e-12	4.25655733e-02
5.81130147e-01	1.29320011e-01	8.78906286e-04	1.86615445e+00	2.15637379e+05	3.00000000e+02	1.89806185e+03	5.96816991e+06	1.54899167e+00	1.80391258e-05	4.91620605e-03	2.06265545e-12	4.19281443e-02
5.79728007e-01	1.29320011e-01	8.78906286e-04	1.80163874e+00	2.07113765e+05	3.00000000e+02	1.93678133e+03	5.83436579e+06	1.53726621e+00	1.80410025e-05	4.83153934e-03	1.96514037e-12	4.12993701e-02
5.78328997e-01	1.29320011e-01	8.78906287e-04	1.75248691e+00	2.00582466e+05	3.00000000e+02	1.96440692e+03	5.72845666e+06	1.52694422e+00	1.80407897e-05	4.74531374e-03	1.88213089e-12	4.05633732e-02
5.76933116e-01	1.29320011e-01	8.78906287e-04	1.71840390e+00	1.95912074e+05	3.00000000e+02	1.97821528e+03	5.64591355e+06	1.51765860e+00	1.80368590e-05	4.65749676e-03	1.76585227e-12	3.97629735e-02
5.75540334e-01	1.29320011e-01	8.78906286e-04	1.69872058e+00	1.93166663e+05	3.00000000e+02	1.99322473e+03	5.58400532e+06	1.51445083e+00	1.80392936e-05	4.56991112e-03	1.66370125e-12	3.90098150e-02
5.74150622e-01	1.29320011e-01	8.78906286e-04	1.69306466e+00	1.92291526e+05	3.00000000e+02	2.02587898e+03	5.54449803e+06	1.52347701e+00	1.80485873e-05	4.48383880e-03	1.65715466e-12	3.83216072e-02
5.72763980e-01	1.29320011e-01	8.78906287e-04	1.70125870e+00	1.93375617e+05	3.00000000e+02	2.06892360e+03	5.56569501e+06	1.54287333e+00	1.80535549e-05	4.39788685e-03	1.74799772e-12	3.76547977e-02
5.71380436e-01	1.29320011e-01	8.78906286e-04	1.72579537e+00	1.96762945e+05	3.00000000e+02	2.10917628e+03	5.65560368e+06	1.56906788e+00	1.80528159e-05	4.30944732e-03	1.89659865e-12	3.69522958e-02
5.69999934e-01	1.29320011e-01	8.78906286e-04	1.77035812e+00	2.02861965e+05	3.00000000e+02	2.14956668e+03	5.79607502e+06	1.60429716e+00	1.80533086e-05	4.21702104e-03	2.13022402e-12	3.61628657e-02
5.68622500e-01	1.29320011e-01	8.78906286e-04	1.83652112e+00	2.11815172e+05	3.00000000e+02	2.18683931e+03	5.97739545e+06	1.64787669e+00	1.80558229e-05	4.11920630e-03	2.45053958e-12	3.52567214e-02
5.86769879e-01	1.29320011e-01	1.46484381e-03	2.14855714e+00	2.54256226e+05	3.00000000e+02	1.92229627e+03	6.62237015e+06	1.67285096e+00	1.80369027e-05	4.81826717e-03	2.74266023e-12	4.14407846e-02
5.85355252e-01	1.29320011e-01	1.46484381e-03	2.09956204e+00	2.47249772e+05	3.00000000e+02	1.90347721e+03	6.49810484e+06	1.64554200e+00	1.80370214e-05	4.73111504e-03	2.61937970e-12	4.06749859e-02
5.83943754e-01	1.29320011e-01	1.46484381e-03	2.02854612e+00	2.37344998e+05	3.00000000e+02	1.89660162e+03	6.33849608e+06	1.61477839e+00	1.80344611e-05	4.65525501e-03	2.42217216e-12	3.99334991e-02
5.82535386e-01	1.29320011e-01	1.46484381e-03	1.94997949e+00	2.26602135e+05	3.00000000e+02	1.90280023e+03	6.16338974e+06	1.58575128e+00	1.80348338e-05	4.58670183e-03	2.18927017e-12	3.92938236e-02
5.81130147e-01	1.29320011e-01	1.46484381e-03	1.87615227e+00	2.16499108e+05	3.00000000e+02	1.92593218e+03	5.97114776e+06	1.56428082e+00	1.80416151e-05	4.51941760e-03	1.99515807e-12	3.87126228e-02
5.79728007e-01	1.29320011e-01	1.46484381e-03	1.81171591e+00	2.07879990e+05	3.00000000e+02	1.96174034e+03	5.81446733e+06	1.55076553e+00	1.80490883e-05	4.44860209e-03	1.87500211e-12	3.81556194e-02
5.78328997e-01	1.29320011e-01	1.46484381e-03	1.76081592e+00	2.01144755e+05	3.00000000e+02	1.99538914e+03	5.70109415e+06	1.54161622e+00	1.80521987e-05	4.37274827e-03	1.79999278e-12	3.75433549e-02
5.76933116e-01	1.29320011e-01	1.46484381e-03	1.72446209e+00	1.96349890e+05	3.00000000e+02	2.01960358e+03	5.62592740e+06	1.53493022e+00	1.80512321e-05	4.29264591e-03	1.72844957e-12	3.68941999e-02
5.75540334e-01	1.29320011e-01	1.46484381e-03	1.70371641e+00	1.93517396e+05	3.00000000e+02	2.04130122e+03	5.57060318e+06	1.53377057e+00	1.80520861e-05	4.21029173e-03	1.67553476e-12	3.61707151e-02
5.74150622e-01	1.29320011e-01	1.46484381e-03	1.69782910e+00	1.92580641e+05	3.00000000e+02	2.06419687e+03	5.54372276e+06	1.53947447e+00	1.80545077e-05	4.12648097e-03	1.64893227e-12	3.53794308e-02
5.72763980e-01	1.29320011e-01	1.46484381e-03	1.70702571e+00	1.93737551e+05	3.00000000e+02	2.09364282e+03	5.56249561e+06	1.55416222e+00	1.80597018e-05	4.04139084e-03	1.66604410e-12	3.46793772e-02
5.71380437e-01	1.29320011e-01	1.46484381e-03	1.73253931e+00	1.97246968e+05	3.00000000e+02	2.14059586e+03	5.64153591e+06	1.58281557e+00	1.80640103e-05	3.95389399e-03	1.81078829e-12	3.40784682e-02
5.69999933e-01	1.29320011e-01	1.46484381e-03	1.77707840e+00	2.03356407e+05	3.00000000e+02	2.18812633e+03	5.78303250e+06	1.62069775e+00	1.80643799e-05	3.86057800e-03	2.06453108e-12	3.33266502e-02
5.68622500e-01	1.29320011e-01	1.46484381e-03	1.84156028e+00	2.12085412e+05	3.00000000e+02	2.22035398e+03	5.97556847e+06	1.66258981e+00	1.80573727e-05	3.75908611e-03	2.34880313e-12	3.24209086e-02
5.88187665e-01	1.29320011e-01	2.05078133e-03	2.15778273e+00	2.55137756e+05	3.00000000e+02	2.02586618e+03	6.63731696e+06	1.72013406e+00	1.80460658e-05	4.30806449e-03	2.65232885e-12	3.73348846e-02
5.86769879e-01	1.29320011e-01	2.05078133e-03	2.14048553e+00	2.52455914e+05	3.00000000e+02	1.98962848e+03	6.57850021e+06	1.69785736e+00	1.80458165e-05	4.21325150e-03	2.57323108e-12	3.65193037e-02
5.85355252e-01	1.29320011e-01	2.05078133e-03	2.09638288e+00	2.46017436e+05	3.00000000e+02	1.96920086e+03	6.44762276e+06	1.67133846e+00	1.80489316e-05	4.13802624e-03	2.43736443e-12	3.57521500e-02
5.83943754e-01	1.29320011e-01	2.05078133e-03	2.03427028e+00	2.37230604e+05	3.00000000e+02	1.96204336e+03	6.28150354e+06	1.64303199e+00	1.80529511e-05	4.08067891e-03	2.26591533e-12	3.51542016e-02
5.82535386e-01	1.29320011e-01	2.05078133e-03	1.96448096e+00	2.27509165e+05	3.00000000e+02	1.96736538e+03	6.09556553e+06	1.61639361e+00	1.80573866e-05	4.03412616e-03	2.08787780e-12	3.47708331e-02
5.81130147e-01	1.29320011e-01	2.05078133e-03	1.89283443e+00	2.17852452e+05	3.00000000e+02	1.98415500e+03	5.93008521e+06	1.59315523e+00	1.80601608e-05	3.98791340e-03	1.92677325e-12	3.44547894e-02
5.79728007e-01	1.29320011e-01	2.05078133e-03	1.82655758e+00	2.09136241e+05	3.00000000e+02	2.01081187e+03	5.79499847e+06	1.57531762e+00	1.80621676e-05	3.93457022e-03	1.80817305e-12	3.40695773e-02
5.78328997e-01	1.29320011e-01	2.05078133e-03	1.77245003e+00	2.02078867e+05	3.00000000e+02	2.03882502e+03	5.68937859e+06	1.56253108e+00	1.80627516e-05	3.87163232e-03	1.72928395e-12	3.35556079e-02
5.76933116e-01	1.29320011e-01	2.05078133e-03	1.73385727e+00	1.96971305e+05	3.00000000e+02	2.05939663e+03	5.60991627e+06	1.55343244e+00	1.80600895e-05	3.80063622e-03	1.65738966e-12	3.29155556e-02
5.75540334e-01	1.29320011e-01	2.05078133e-03	1.71128297e+00	1.93912872e+05	3.00000000e+02	2.07172968e+03	5.56817583e+06	1.54849985e+00	1.80531041e-05	3.72441265e-03	1.56445469e-12	3.22049188e-02
5.74150622e-01	1.29320011e-01	2.05078133e-03	1.70574050e+00	1.93097986e+05	3.00000000e+02	2.09476272e+03	5.54483767e+06	1.55419658e+00	1.80573304e-05	3.64570740e-03	1.51282160e-12	3.15184195e-02
5.72763979e-01	1.29320011e-01	2.05078133e-03	1.71635326e+00	1.94517580e+05	3.00000000e+02	2.13749468e+03	5.55869413e+06	1.57369845e+00	1.80704904e-05	3.56481601e-03	1.56837807e-12	3.08841901e-02
5.71380436e-01	1.29320011e-01	2.05078133e-03	1.74263563e+00	1.98110024e+05	3.00000000e+02	2.19035206e+03	5.63386755e+06	1.60441649e+00	1.80791803e-05	3.47849966e-03	1.73251207e-12	3.02062228e-02
5.69999933e-01	1.29320011e-01	2.05078133e-03	1.78618003e+00	2.04076595e+05	3.00000000e+02	2.23631443e+03	5.77119105e+06	1.64117300e+00	1.80804936e-05	3.38306180e-03	1.95773248e-12	2.94309115e-02
5.68622500e-01	1.29320011e-01	2.05078133e-03	1.84940600e+00	2.12585172e+05	3.00000000e+02	2.26777772e+03	5.94271462e+06	1.68176542e+00	1.80795056e-05	3.27691329e-03	2.20884607e-12	2.84891112e-02
5.89608640e-01	1.29320011e-01	2.63671891e-03	2.13432045e+00	2.51280123e+05	3.00000000e+02	2.12669187e+03	6.57749524e+06	1.75238754e+00	1.80504294e-05	3.72737093e-03	2.37690274e-12	3.25875964e-02
5.88187664e-01	1.29320011e-01	2.63671891e-03	2.14650034e+00	2.52590529e+05	3.00000000e+02	2.07895315e+03	6.57245133e+06	1.73734403e+00	1.80525104e-05	3.62007982e-03	2.28759032e-12	3.16267199e-02
5.86769879e-01	1.29320011e-01	2.63671891e-03	2.13313602e+00	2.50196738e+05	3.00000000e+02	2.06152070e+03	6.46673846e+06	1.72330360e+00	1.80666206e-05	3.53445539e-03	2.25212836e-12	3.09745875e-02
5.85355252e-01	1.29320011e-01	2.63671891e-03	2.09407669e+00	2.44578921e+05	3.00000000e+02	2.05427545e+03	6.34904679e+06	1.70380025e+00	1.80735119e-05	3.47314799e-03	2.19138934e-12	3.04610465e-02
5.83943754e-01	1.29320011e-01	2.63671891e-03	2.03950546e+00	2.37043526e+05	3.00000000e+02	2.04817272e+03	6.22009730e+06	1.67870126e+00	1.80762319e-05	3.43310887e-03	2.07559149e-12	3.00999433e-02
5.82535386e-01	1.29320011e-01	2.63671891e-03	1.97689291e+00	2.28526174e+05	3.00000000e+02	2.04558180e+03	6.08003920e+06	1.65160515e+00	1.80771252e-05	3.40549862e-03	1.93771252e-12	2.98405072e-02
5.81130147e-01	1.29320011e-01	2.63671891e-03	1.90981746e+00	2.19527628e+05	3.00000000e+02	2.05001919e+03	5.93529886e+06	1.62510112e+00	1.80771558e-05	3.37867460e-03	1.80337245e-12	2.96036832e-02
5.79728007e-01	1.29320011e-01	2.63671891e-03	1.84413399e+00	2.10818399e+05	3.00000000e+02	2.06478805e+03	5.79677264e+06	1.60265142e+00	1.80771723e-05	3.34340753e-03	1.68992565e-12	2.92844882e-02
5.78328996e-01	1.29320011e-01	2.63671891e-03	1.78795786e+00	2.03401686e+05	3.00000000e+02	2.08516414e+03	5.67648836e+06	1.58580236e+00	1.80773722e-05	3.29556389e-03	1.59909286e-12	2.88171239e-02
5.76933116e-01	1.29320011e-01	2.63671891e-03	1.74684008e+00	1.97919959e+05	3.00000000e+02	2.10397227e+03	5.58127061e+06	1.57451486e+00	1.80773769e-05	3.23654685e-03	1.51284676e-12	2.82164957e-02
5.75540334e-01	1.29320011e-01	2.63671891e-03	1.72380053e+00	1.94744207e+05	3.00000000e+02	2.12142768e+03	5.51849535e+06	1.57056941e+00	1.80774048e-05	3.17005600e-03	1.42797453e-12	2.75949274e-02
5.74150622e-01	1.29320011e-01	2.63671891e-03	1.71857488e+00	1.94048351e+05	3.00000000e+02	2.15221077e+03	5.50181258e+06	1.57900796e+00	1.80833092e-05	3.09891832e-03	1.40219872e-12	2.70984298e-02
5.72763980e-01	1.29320011e-01	2.63671891e-03	1.72944234e+00	1.95618616e+05	3.00000000e+02	2.19805475e+03	5.54289103e+06	1.60024671e+00	1.80892662e-05	3.02228647e-03	1.47640158e-12	2.65625556e-02
5.71380436e-01	1.29320011e-01	2.63671891e-03	1.75633054e+00	1.99245108e+05	3.00000000e+02	2.24291705e+03	5.62285478e+06	1.62878890e+00	1.80917480e-05	2.93650794e-03	1.61170031e-12	2.58509325e-02
5.69999934e-01	1.29320011e-01	2.63671891e-03	1.79804098e+00	2.04753190e+05	3.00000000e+02	2.27567391e+03	5.74194941e+06	1.66051478e+00	1.80862138e-05	2.83933200e-03	1.74049933e-12	2.49617582e-02
5.68622500e-01	1.29320011e-01	2.63671891e-03	1.85694532e+00	2.12836772e+05	3.00000000e+02	2.30266649e+03	5.91676938e+06	1.69723954e+00	1.80887074e-05	2.73088965e-03	1.87837304e-12	2.39930750e-02
5.89608640e-01	1.29320011e-01	3.22265644e-03	2.12389133e+00	2.48881010e+05	3.00000000e+02	2.20437352e+03	6.47177652e+06	1.77656599e+00	1.80826881e-05	3.03226278e-03	1.96560575e-12	2.69714439e-02
5.88187665e-01	1.29320011e-01	3.22265643e-03	2.13259821e+00	2.49810717e+05	3.00000000e+02	2.18949899e+03	6.46395999e+06	1.77377916e+00	1.80868502e-05	2.93556796e-03	2.03518879e-12	2.62319463e-02
5.86769879e-01	1.29320011e-01	3.22265643e-03	2.11632044e+00	2.47492915e+05	3.00000000e+02	2.16801284e+03	6.43160361e+06	1.75846130e+00	1.80852460e-05	2.86045470e-03	2.02333215e-12	2.55361920e-02
5.85355252e-01	1.29320011e-01	3.22265644e-03	2.08238951e+00	2.42835218e+05	3.00000000e+02	2.14535642e+03	6.37141118e+06	1.73558839e+00	1.80808803e-05	2.80972022e-03	1.94478083e-12	2.50179384e-02
5.83943754e-01	1.29320011e-01	3.22265643e-03	2.03841774e+00	2.36732734e+05	3.00000000e+02	2.12424841e+03	6.27090421e+06	1.70887588e+00	1.80789965e-05	2.78058370e-03	1.83297549e-12	2.47097804e-02
5.82535386e-01	1.29320011e-01	3.22265644e-03	1.98731202e+00	2.29516047e+05	3.00000000e+02	2.10786529e+03	6.12470609e+06	1.68065546e+00	1.80805386e-05	2.76449862e-03	1.71058593e-12	2.45304387e-02
5.81130147e-01	1.29320011e-01	3.22265643e-03	1.92845221e+00	2.21339211e+05	3.00000000e+02	2.09800707e+03	5.96241464e+06	1.65155074e+00	1.80822133e-05	2.75096152e-03	1.58139472e-12	2.43711010e-02
5.79728007e-01	1.29320011e-01	3.22265643e-03	1.86578553e+00	2.12784634e+05	3.00000000e+02	2.09996606e+03	5.79706293e+06	1.62506432e+00	1.80843141e-05	2.73107543e-03	1.45146719e-12	2.41624180e-02
5.78328996e-01	1.29320011e-01	3.22265644e-03	1.80875514e+00	2.05104320e+05	3.00000000e+02	2.11743543e+03	5.64348495e+06	1.60612030e+00	1.80905805e-05	2.69966913e-03	1.34380533e-12	2.38920058e-02
5.76933116e-01	1.29320011e-01	3.22265643e-03	1.76452673e+00	1.99334939e+05	3.00000000e+02	2.15190620e+03	5.53973107e+06	1.59855088e+00	1.80981808e-05	2.65609692e-03	1.28694776e-12	2.35422431e-02
5.75540334e-01	1.29320011e-01	3.22265643e-03	1.73907184e+00	1.96136258e+05	3.00000000e+02	2.19331223e+03	5.49299622e+06	1.60154162e+00	1.81053264e-05	2.60205143e-03	1.28312848e-12	2.31078874e-02
5.74150622e-01	1.29320011e-01	3.22265644e-03	1.73399324e+00	1.95575433e+05	3.00000000e+02	2.23233309e+03	5.49478284e+06	1.61292176e+00	1.81102937e-05	2.53872168e-03	1.31703158e-12	2.25926749e-02
5.72763980e-01	1.29320011e-01	3.22265644e-03	1.74573699e+00	1.97155792e+05	3.00000000e+02	2.26574735e+03	5.53605137e+06	1.63041362e+00	1.81106046e-05	2.46567034e-03	1.37281001e-12	2.19919381e-02
5.71380437e-01	1.29320011e-01	3.22265643e-03	1.77172754e+00	2.00507305e+05	3.00000000e+02	2.29181851e+03	5.60444075e+06	1.65220587e+00	1.81075634e-05	2.38140355e-03	1.42690654e-12	2.12303993e-02
5.69999933e-01	1.29320011e-01	3.22265643e-03	1.81037808e+00	2.05506233e+05	3.00000000e+02	2.31086503e+03	5.70790939e+06	1.67770329e+00	1.81005750e-05	2.28607250e-03	1.45073211e-12	2.03331155e-02
5.68622500e-01	1.29320011e-01	3.22265643e-03	1.86584443e+00	2.13194048e+05	3.00000000e+02	2.33925712e+03	5.87059240e+06	1.71281453e+00	1.81093121e-05	2.18189315e-03	1.53491569e-12	1.95467662e-02
5.89608640e-01	1.29320011e-01	3.80859396e-03	2.10852771e+00	2.45759580e+05	3.00000000e+02	2.29517343e+03	6.36439915e+06	1.80398178e+00	1.81050972e-05	2.38790935e-03	1.68178932e-12	2.16037149e-02
5.88187664e-01	1.29320011e-01	3.80859396e-03	2.11241642e+00	2.46176887e+05	3.00000000e+02	2.26894307e+03	6.38050718e+06	1.79576351e+00	1.81003937e-05	2.30109714e-03	1.67551582e-12	2.07053183e-02
5.86769879e-01	1.29320011e-01	3.80859396e-03	2.10047717e+00	2.44413449e+05	3.00000000e+02	2.24503771e+03	6.34907120e+06	1.78119942e+00	1.81006368e-05	2.23698770e-03	1.63119515e-12	2.00773448e-02
5.85355252e-01	1.29320011e-01	3.80859396e-03	2.07792540e+00	2.41027208e+05	3.00000000e+02	2.23093730e+03	6.26487561e+06	1.76567573e+00	1.81043655e-05	2.19674326e-03	1.59035907e-12	1.97618158e-02
5.83943754e-01	1.29320011e-01	3.80859396e-03	2.04591147e+00	2.36368996e+05	3.00000000e+02	2.21575440e+03	6.15728985e+06	1.74570456e+00	1.81079413e-05	2.17568039e-03	1.53315180e-12	1.96074447e-02
5.82535386e-01	1.29320011e-01	3.80859396e-03	2.00396153e+00	2.30422563e+05	3.00000000e+02	2.19535043e+03	6.03296942e+06	1.71959035e+00	1.81095315e-05	2.16645964e-03	1.44677353e-12	1.95339168e-02
5.81130147e-01	1.29320011e-01	3.80859396e-03	1.95169679e+00	2.23165524e+05	3.00000000e+02	2.17666559e+03	5.88968833e+06	1.68970860e+00	1.81103070e-05	2.16133093e-03	1.33939727e-12	1.94966654e-02
5.79728007e-01	1.29320011e-01	3.80859396e-03	1.89192874e+00	2.15082373e+05	3.00000000e+02	2.17032617e+03	5.74191052e+06	1.66112580e+00	1.81112307e-05	2.15311113e-03	1.22962494e-12	1.94500565e-02
5.78328996e-01	1.29320011e-01	3.80859396e-03	1.83311936e+00	2.07380037e+05	3.00000000e+02	2.18267577e+03	5.61703827e+06	1.63957883e+00	1.81131207e-05	2.13601356e-03	1.14137509e-12	1.93477897e-02
5.76933116e-01	1.29320011e-01	3.80859396e-03	1.78596448e+00	2.01396144e+05	3.00000000e+02	2.21254399e+03	5.53383627e+06	1.62909411e+00	1.81163953e-05	2.10675299e-03	1.09719824e-12	1.91452839e-02
5.75540334e-01	1.29320011e-01	3.80859396e-03	1.75857860e+00	1.98043687e+05	3.00000000e+02	2.25236349e+03	5.49832177e+06	1.63065776e+00	1.81206139e-05	2.06444235e-03	1.10049227e-12	1.88062604e-02
5.74150622e-01	1.29320011e-01	3.80859396e-03	1.75304993e+00	1.97461794e+05	3.00000000e+02	2.29024634e+03	5.50467336e+06	1.64141448e+00	1.81240636e-05	2.00932788e-03	1.13352989e-12	1.83108897e-02
5.72763980e-01	1.29320011e-01	3.80859396e-03	1.76366576e+00	1.98854350e+05	3.00000000e+02	2.31778500e+03	5.53889401e+06	1.65628119e+00	1.81236740e-05	1.94221838e-03	1.16203712e-12	1.76702943e-02
5.71380436e-01	1.29320011e-01	3.80859396e-03	1.78598991e+00	2.01863302e+05	3.00000000e+02	2.33949189e+03	5.61122998e+06	1.67459899e+00	1.81227894e-05	1.86386611e-03	1.17020521e-12	1.69341053e-02
5.69999934e-01	1.29320011e-01	3.80859396e-03	1.82268154e+00	2.06807917e+05	3.00000000e+02	2.37029035e+03	5.70327505e+06	1.70192222e+00	1.81322650e-05	1.77548608e-03	1.20611428e-12	1.61678348e-02
5.68622500e-01	1.29320011e-01	3.80859396e-03	1.87539336e+00	2.13722676e+05	3.00000000e+02	2.40377804e+03	5.80827981e+06	1.73741932e+00	1.81436358e-05	1.67875738e-03	1.30198595e-12	1.54030080e-02
5.89608640e-01	1.29320011e-01	4.39453149e-03	2.08688193e+00	2.41984601e+05	3.00000000e+02	2.33848101e+03	6.27361454e+06	1.81020183e+00	1.81185925e-05	1.82396317e-03	1.24886238e-12	1.68701769e-02
5.88187665e-01	1.29320011e-01	4.39453149e-03	2.09134708e+00	2.42467996e+05	3.00000000e+02	2.33611338e+03	6.25837099e+06	1.81004405e+00	1.81303618e-05	1.75178035e-03	1.26800230e-12	1.62705651e-02
5.86769879e-01	1.29320011e-01	4.39453149e-03	2.08448343e+00	2.41423730e+05	3.00000000e+02	2.33636781e+03	6.22703568e+06	1.80647821e+00	1.81373027e-05	1.70048336e-03	1.28895029e-12	1.58437073e-02
5.85355252e-01	1.29320011e-01	4.39453149e-03	2.06899462e+00	2.39184655e+05	3.00000000e+02	2.32705778e+03	6.17780795e+06	1.79581053e+00	1.81408799e-05	1.66828192e-03	1.27731235e-12	1.55623309e-02
5.83943754e-01	1.29320011e-01	4.39453148e-03	2.04582697e+00	2.35817218e+05	3.00000000e+02	2.30891020e+03	6.10274242e+06	1.77858481e+00	1.81425776e-05	1.65135020e-03	1.23587601e-12	1.54038250e-02
5.82535386e-01	1.29320011e-01	4.39453148e-03	2.01271357e+00	2.31063830e+05	3.00000000e+02	2.28607675e+03	5.99941430e+06	1.75531519e+00	1.81433248e-05	1.64487196e-03	1.17195135e-12	1.53312640e-02
5.81130147e-01	1.29320011e-01	4.39453148e-03	1.96812994e+00	2.24836326e+05	3.00000000e+02	2.26618201e+03	5.87433385e+06	1.72816599e+00	1.81436399e-05	1.64377009e-03	1.09798549e-12	1.53048592e-02
5.79728007e-01	1.29320011e-01	4.39453148e-03	1.91425224e+00	2.17540882e+05	3.00000000e+02	2.25734106e+03	5.74223953e+06	1.70099286e+00	1.81439265e-05	1.64249723e-03	1.02805731e-12	1.52798147e-02
5.78328996e-01	1.29320011e-01	4.39453149e-03	1.85898365e+00	2.10284222e+05	3.00000000e+02	2.26436569e+03	5.62618305e+06	1.67880485e+00	1.81445603e-05	1.63510217e-03	9.74475789e-13	1.52074627e-02
5.76933116e-01	1.29320011e-01	4.39453148e-03	1.81298306e+00	2.04383148e+05	3.00000000e+02	2.28460982e+03	5.54200420e+06	1.66519763e+00	1.81456573e-05	1.61651193e-03	9.43223008e-13	1.50474067e-02
5.75540334e-01	1.29320011e-01	4.39453148e-03	1.78434910e+00	2.00778340e+05	3.00000000e+02	2.31173204e+03	5.49867049e+06	1.66170323e+00	1.81464130e-05	1.58395209e-03	9.31555876e-13	1.47805664e-02
5.74150622e-01	1.29320011e-01	4.39453149e-03	1.77624453e+00	1.99805833e+05	3.00000000e+02	2.33902304e+03	5.49866520e+06	1.66775109e+00	1.81456693e-05	1.53721605e-03	9.33511501e-13	1.43841096e-02
5.72763980e-01	1.29320011e-01	4.39453149e-03	1.78515691e+00	2.00934864e+05	3.00000000e+02	2.36101306e+03	5.52642937e+06	1.68001007e+00	1.81430837e-05	1.47794476e-03	9.35461736e-13	1.38219148e-02
5.71380437e-01	1.29320011e-01	4.39453149e-03	1.80528114e+00	2.03415894e+05	3.00000000e+02	2.37615734e+03	5.57177440e+06	1.69542234e+00	1.81370944e-05	1.40820928e-03	9.19733154e-13	1.31455891e-02
5.69999933e-01	1.29320011e-01	4.39453148e-03	1.83594328e+00	2.07487034e+05	3.00000000e+02	2.39294061e+03	5.66209735e+06	1.71615284e+00	1.81332323e-05	1.32955103e-03	9.01367394e-13	1.24721135e-02
5.88187664e-01	1.29320011e-01	4.98046889e-03	2.06681978e+00	2.38523260e+05	3.00000000e+02	2.39231435e+03	6.19063393e+06	1.82046635e+00	1.81348250e-05	1.30004050e-03	9.51707015e-13	1.23940892e-02
5.86769879e-01	1.29320011e-01	4.98046889e-03	2.06521777e+00	2.38323401e+05	3.00000000e+02	2.39707181e+03	6.18065208e+06	1.82080513e+00	1.81424351e-05	1.25901152e-03	9.71871642e-13	1.21056377e-02
5.85355252e-01	1.29320011e-01	4.98046889e-03	2.05797241e+00	2.37266839e+05	3.00000000e+02	2.39169997e+03	6.15239699e+06	1.81509870e+00	1.81471519e-05	1.23221563e-03	9.75210839e-13	1.18998352e-02
5.83943754e-01	1.29320011e-01	4.98046889e-03	2.04333507e+00	2.35072805e+05	3.00000000e+02	2.37344290e+03	6.09525254e+06	1.80144867e+00	1.81498438e-05	1.21682214e-03	9.51447326e-13	1.17691616e-02
5.82535386e-01	1.29320011e-01	4.98046889e-03	2.01848128e+00	2.31391710e+05	3.00000000e+02	2.34757110e+03	6.00426822e+06	1.78054628e+00	1.81511468e-05	1.20995601e-03	9.04871598e-13	1.17014301e-02
5.81130147e-01	1.29320011e-01	4.98046889e-03	1.98239415e+00	2.26210594e+05	3.00000000e+02	2.32210756e+03	5.88779982e+06	1.75492878e+00	1.81514895e-05	1.20878340e-03	8.45603459e-13	1.16827933e-02
5.79728007e-01	1.29320011e-01	4.98046889e-03	1.93700073e+00	2.19926517e+05	3.00000000e+02	2.30554879e+03	5.76237726e+06	1.72854048e+00	1.81513149e-05	1.20976039e-03	7.86599461e-13	1.16920627e-02
5.78328997e-01	1.29320011e-01	4.98046889e-03	1.88839498e+00	2.13461746e+05	3.00000000e+02	2.30466647e+03	5.65223255e+06	1.70638597e+00	1.81513439e-05	1.20799482e-03	7.41111572e-13	1.16915342e-02
5.76933116e-01	1.29320011e-01	4.98046889e-03	1.84516165e+00	2.07930537e+05	3.00000000e+02	2.32088515e+03	5.57473107e+06	1.69254920e+00	1.81525787e-05	1.19787210e-03	7.17979503e-13	1.16258041e-02
5.75540334e-01	1.29320011e-01	4.98046889e-03	1.81520668e+00	2.04237230e+05	3.00000000e+02	2.34941750e+03	5.53426476e+06	1.68874761e+00	1.81557414e-05	1.17496240e-03	7.16099473e-13	1.14373198e-02
5.74150622e-01	1.29320011e-01	4.98046889e-03	1.80304232e+00	2.02822844e+05	3.00000000e+02	2.38035319e+03	5.52650005e+06	1.69369060e+00	1.81603904e-05	1.13776817e-03	7.24146920e-13	1.10930526e-02
5.72763980e-01	1.29320011e-01	4.98046889e-03	1.80714955e+00	2.03388522e+05	3.00000000e+02	2.40410463e+03	5.53950172e+06	1.70366299e+00	1.81645916e-05	1.08781093e-03	7.25353342e-13	1.06026929e-02
5.71380436e-01	1.29320011e-01	4.98046889e-03	1.82376576e+00	2.05430716e+05	3.00000000e+02	2.41868042e+03	5.56645219e+06	1.71654751e+00	1.81657587e-05	1.02787156e-03	7.11001085e-13	1.00013427e-02
5.69999934e-01	1.29320011e-01	4.98046889e-03	1.85006640e+00	2.08687069e+05	3.00000000e+02	2.42792525e+03	5.60842419e+06	1.73212229e+00	1.81663785e-05	9.60627362e-04	6.90359332e-13	9.34692611e-03
5.88187664e-01	1.29320011e-01	5.56640653e-03	2.04640026e+00	2.34990930e+05	3.00000000e+02	2.45592957e+03	6.06189073e+06	1.83253026e+00	1.81630044e-05	9.41421728e-04	6.99897228e-13	9.48846246e-03
5.86769879e-01	1.29320011e-01	5.56640653e-03	2.04893750e+00	2.35489161e+05	3.00000000e+02	2.45885360e+03	6.08525522e+06	1.83463133e+00	1.81642505e-05	9.09547681e-04	7.14525930e-13	9.15477831e-03
5.85355252e-01	1.29320011e-01	5.56640653e-03	2.04842981e+00	2.35375201e+05	3.00000000e+02	2.45220669e+03	6.07686634e+06	1.83159874e+00	1.81674653e-05	8.87282131e-04	7.16392771e-13	8.94314681e-03
5.83943754e-01	1.29320011e-01	5.56640653e-03	2.04035365e+00	2.34114114e+05	3.00000000e+02	2.43628595e+03	6.03954485e+06	1.82183361e+00	1.81695320e-05	8.73058990e-04	7.02733109e-13	8.80010327e-03
5.82535386e-01	1.29320011e-01	5.56640653e-03	2.02208214e+00	2.31396699e+05	3.00000000e+02	2.41375262e+03	5.97120238e+06	1.80512739e+00	1.81707777e-05	8.65404592e-04	6.75068493e-13	8.70806507e-03
5.81130147e-01	1.29320011e-01	5.56640653e-03	1.99391540e+00	2.27330846e+05	3.00000000e+02	2.39003765e+03	5.87782389e+06	1.78361791e+00	1.81714468e-05	8.62863456e-04	6.39518405e-13	8.65453059e-03
5.79728007e-01	1.29320011e-01	5.56640653e-03	1.95831227e+00	2.22330751e+05	3.00000000e+02	2.37033358e+03	5.77191076e+06	1.76028637e+00	1.81718013e-05	8.63229484e-04	6.02245714e-13	8.62292366e-03
5.78328997e-01	1.29320011e-01	5.56640653e-03	1.91964485e+00	2.17054716e+05	3.00000000e+02	2.35946048e+03	5.67019018e+06	1.73878086e+00	1.81722015e-05	8.62909045e-04	5.69026122e-13	8.58857559e-03
5.76933116e-01	1.29320011e-01	5.56640653e-03	1.88297618e+00	2.12203812e+05	3.00000000e+02	2.36096929e+03	5.58757354e+06	1.72255935e+00	1.81730987e-05	8.57136725e-04	5.44326208e-13	8.51924064e-03
5.75540334e-01	1.29320011e-01	5.56640653e-03	1.85354282e+00	2.08439995e+05	3.00000000e+02	2.37576217e+03	5.53412540e+06	1.71422010e+00	1.81748906e-05	8.41407484e-04	5.30011185e-13	8.38079441e-03
5.74150622e-01	1.29320011e-01	5.56640653e-03	1.83645008e+00	2.06338505e+05	3.00000000e+02	2.39867542e+03	5.51227679e+06	1.71424326e+00	1.81776799e-05	8.13297988e-04	5.23882523e-13	8.14687921e-03
5.72763979e-01	1.29320011e-01	5.56640653e-03	1.83340292e+00	2.06010490e+05	3.00000000e+02	2.42055757e+03	5.51424990e+06	1.72029200e+00	1.81810974e-05	7.73386283e-04	5.17912469e-13	7.80948887e-03
5.71380436e-01	1.29320011e-01	5.56640653e-03	1.84237916e+00	2.07148289e+05	3.00000000e+02	2.43515899e+03	5.53172579e+06	1.72939430e+00	1.81842227e-05	7.24283806e-04	5.05891571e-13	7.39285088e-03
5.69999934e-01	1.29320011e-01	5.56640653e-03	1.85998042e+00	2.09291084e+05	3.00000000e+02	2.44065672e+03	5.55701249e+06	1.73944125e+00	1.81858400e-05	6.69048571e-04	4.90691280e-13	6.92100816e-03
5.88187664e-01	1.29320011e-01	6.15234417e-03	2.02831165e+00	2.31784944e+05	3.00000000e+02	2.48202467e+03	5.94187522e+06	1.83191140e+00	1.81845065e-05	6.65273007e-04	4.85821016e-13	7.17410028e-03
5.86769879e-01	1.29320011e-01	6.15234417e-03	2.03563895e+00	2.32950946e+05	3.00000000e+02	2.48793744e+03	5.98013707e+06	1.83735328e+00	1.81849886e-05	6.40437310e-04	5.00548301e-13	6.95808227e-03
5.85355252e-01	1.29320011e-01	6.15234417e-03	2.03990510e+00	2.33533261e+05	3.00000000e+02	2.48214670e+03	5.99255609e+06	1.83711169e+00	1.81852276e-05	6.21737781e-04	5.03510858e-13	6.78587422e-03