VARIABLES ="X" "Y" "Z" "rho" "press" "temp" "tau_wall" "qdot" "yplus" "muLam" "ZMean" "ZVar" "CMean" 
Zone T ="wall" I = 7342 , F = point
4.93749917e-01	1.19520001e-01	9.08203144e-03	1.51298294e+00	1.71529042e+05	3.00000000e+02	2.06975663e+03	4.37300115e+06	1.91144156e+00	1.82098352e-05	1.38589623e-05	4.20821770e-16	1.44415207e-04
4.92541760e-01	1.19520001e-01	9.08203143e-03	1.55762075e+00	1.77259129e+05	3.00000000e+02	2.05625857e+03	4.44352616e+06	1.93309914e+00	1.82098338e-05	1.25484802e-05	3.49750473e-16	1.29238672e-04
4.91336287e-01	1.19520001e-01	9.08203144e-03	1.59591468e+00	1.82056694e+05	3.00000000e+02	2.03440624e+03	4.48876610e+06	1.94629249e+00	1.82098325e-05	1.13273255e-05	2.55741778e-16	1.15138078e-04
4.90133480e-01	1.19520001e-01	9.08203144e-03	1.62481132e+00	1.85591792e+05	3.00000000e+02	2.00980707e+03	4.51291966e+06	1.95192494e+00	1.82098314e-05	1.01906000e-05	1.48566184e-16	1.02042515e-04
4.88933340e-01	1.19520001e-01	9.08203144e-03	1.64187273e+00	1.87590578e+05	3.00000000e+02	1.98671352e+03	4.51797724e+06	1.95084091e+00	1.82098304e-05	9.12366683e-06	4.17255567e-17	8.97789965e-05
4.87735882e-01	1.19520001e-01	9.08203143e-03	1.64675736e+00	1.88050049e+05	3.00000000e+02	1.96744353e+03	4.50822322e+06	1.94424259e+00	1.82098294e-05	8.12271242e-06	-4.47193345e-17	7.83188302e-05
4.86541077e-01	1.19520001e-01	9.08203144e-03	1.64039770e+00	1.87119762e+05	3.00000000e+02	1.95064775e+03	4.48789139e+06	1.93218420e+00	1.82098286e-05	7.19686556e-06	-9.50618986e-17	6.78039600e-05
4.93749916e-01	1.19520001e-01	8.49609403e-03	1.49501938e+00	1.70559130e+05	3.00000000e+02	2.12399884e+03	4.48675784e+06	1.92478737e+00	1.82099257e-05	5.87459257e-05	3.78624671e-15	6.87536864e-04
4.92541761e-01	1.19520001e-01	8.49609403e-03	1.53651878e+00	1.75879225e+05	3.00000000e+02	2.10885426e+03	4.54944834e+06	1.94435047e+00	1.82099207e-05	5.70302966e-05	3.61744998e-15	6.65782798e-04
4.91336286e-01	1.19520001e-01	8.49609403e-03	1.57132406e+00	1.80262150e+05	3.00000000e+02	2.08813415e+03	4.59127243e+06	1.95656619e+00	1.82099150e-05	5.50293172e-05	3.29642127e-15	6.40444473e-04
4.90133479e-01	1.19520001e-01	8.49609403e-03	1.59681677e+00	1.83421560e+05	3.00000000e+02	2.06703033e+03	4.61560212e+06	1.96238219e+00	1.82099083e-05	5.25709314e-05	2.81837099e-15	6.09367735e-04
4.88933340e-01	1.19520001e-01	8.49609403e-03	1.61128141e+00	1.85164954e+05	3.00000000e+02	2.04846818e+03	4.62417264e+06	1.96238011e+00	1.82099000e-05	4.94149624e-05	2.13792054e-15	5.69551062e-04
4.87735882e-01	1.19520001e-01	8.49609403e-03	1.61348478e+00	1.85375771e+05	3.00000000e+02	2.03555838e+03	4.62014188e+06	1.95752482e+00	1.82098901e-05	4.54363366e-05	1.30771281e-15	5.19325705e-04
4.86541077e-01	1.19520001e-01	8.49609403e-03	1.60462536e+00	1.84260143e+05	3.00000000e+02	2.02964062e+03	4.61047470e+06	1.94930466e+00	1.82098791e-05	4.06834755e-05	5.91363672e-16	4.58220754e-04
4.93749917e-01	1.19520001e-01	7.91015663e-03	1.47155463e+00	1.69120724e+05	3.00000000e+02	2.16960041e+03	4.61113431e+06	1.93014669e+00	1.82086664e-05	2.26849452e-04	3.53075163e-14	2.81099850e-03
4.92541761e-01	1.19520001e-01	7.91015663e-03	1.50848939e+00	1.73938720e+05	3.00000000e+02	2.15751687e+03	4.67353090e+06	1.94880949e+00	1.82082928e-05	2.32070691e-04	3.63509915e-14	2.86183027e-03
4.91336286e-01	1.19520001e-01	7.91015662e-03	1.53880637e+00	1.77882062e+05	3.00000000e+02	2.14304340e+03	4.72129551e+06	1.96169958e+00	1.82081304e-05	2.35074178e-04	3.60297016e-14	2.88250227e-03
4.90133480e-01	1.19520001e-01	7.91015662e-03	1.55999099e+00	1.80626044e+05	3.00000000e+02	2.13001379e+03	4.75235339e+06	1.96911968e+00	1.82083471e-05	2.34123274e-04	3.40989873e-14	2.85204732e-03
4.88933340e-01	1.19520001e-01	7.91015662e-03	1.57220802e+00	1.82197874e+05	3.00000000e+02	2.11914538e+03	4.76881131e+06	1.97168400e+00	1.82090988e-05	2.27181178e-04	3.04031780e-14	2.74631256e-03
4.87735883e-01	1.19520001e-01	7.91015662e-03	1.57357008e+00	1.82344561e+05	3.00000000e+02	2.11169681e+03	4.76782602e+06	1.96892751e+00	1.82103999e-05	2.12714041e-04	2.48165275e-14	2.54709840e-03
4.86541077e-01	1.19520001e-01	7.91015663e-03	1.56479751e+00	1.81232033e+05	3.00000000e+02	2.11169532e+03	4.75971126e+06	1.96340423e+00	1.82106466e-05	1.90882839e-04	1.86462458e-14	2.25703168e-03
4.92541760e-01	1.19520001e-01	7.32421899e-03	1.47988897e+00	1.70865323e+05	3.00000000e+02	2.11542050e+03	4.67255180e+06	1.91403322e+00	1.81825100e-05	7.66350280e-04	2.40241558e-13	7.65256342e-03
4.91336286e-01	1.19520001e-01	7.32421899e-03	1.50516458e+00	1.74205983e+05	3.00000000e+02	2.09877245e+03	4.71886751e+06	1.92298139e+00	1.81798366e-05	7.99037239e-04	2.49614403e-13	7.94042125e-03
4.90133480e-01	1.19520001e-01	7.32421899e-03	1.52154127e+00	1.76407902e+05	3.00000000e+02	2.08784985e+03	4.75244872e+06	1.92853730e+00	1.81783240e-05	8.14722537e-04	2.47334477e-13	8.08347663e-03
4.88933340e-01	1.19520001e-01	7.32421899e-03	1.53146578e+00	1.77753284e+05	3.00000000e+02	2.08323294e+03	4.77350215e+06	1.93259715e+00	1.81790680e-05	8.05668639e-04	2.31504894e-13	8.01509840e-03
4.87735883e-01	1.19520001e-01	7.32421899e-03	1.53418849e+00	1.78080637e+05	3.00000000e+02	2.08423213e+03	4.77489460e+06	1.93442896e+00	1.81823495e-05	7.64663934e-04	2.01045245e-13	7.66916844e-03
4.86541078e-01	1.19520001e-01	7.32421899e-03	1.52849092e+00	1.77304807e+05	3.00000000e+02	2.09816880e+03	4.76679504e+06	1.93691667e+00	1.81857447e-05	6.90693207e-04	1.62978017e-13	7.03301847e-03
4.92541760e-01	1.19520001e-01	6.73828157e-03	1.44855566e+00	1.67061988e+05	3.00000000e+02	1.98992035e+03	4.60680807e+06	1.84323616e+00	1.81173571e-05	2.10407884e-03	1.08393667e-12	1.90891293e-02
4.91336286e-01	1.19520001e-01	6.73828158e-03	1.46675433e+00	1.70171711e+05	3.00000000e+02	1.95971518e+03	4.73560633e+06	1.84232677e+00	1.81008467e-05	2.22495928e-03	1.12456352e-12	2.00745751e-02
4.90133480e-01	1.19520001e-01	6.73828157e-03	1.47671403e+00	1.71682289e+05	3.00000000e+02	1.95232831e+03	4.77039609e+06	1.84519197e+00	1.80997866e-05	2.29749261e-03	1.15107175e-12	2.07184044e-02
4.88933340e-01	1.19520001e-01	6.73828158e-03	1.48522027e+00	1.72751078e+05	3.00000000e+02	1.95874026e+03	4.78014913e+06	1.85355088e+00	1.80996315e-05	2.29331877e-03	1.12111101e-12	2.06496618e-02
4.87735883e-01	1.19520001e-01	6.73828158e-03	1.49137995e+00	1.73683784e+05	3.00000000e+02	1.96755825e+03	4.80945858e+06	1.86123391e+00	1.81028677e-05	2.19557106e-03	1.01085772e-12	1.98277707e-02
4.86541078e-01	1.19520001e-01	6.73828158e-03	1.49353257e+00	1.73535398e+05	3.00000000e+02	2.00894873e+03	4.75201526e+06	1.87989643e+00	1.81237573e-05	2.00762789e-03	9.04003257e-13	1.83235377e-02
4.92541761e-01	1.19520001e-01	6.15234417e-03	1.40885585e+00	1.63740828e+05	3.00000000e+02	1.80643882e+03	4.62930657e+06	1.74005724e+00	1.80331568e-05	4.94311579e-03	3.39684987e-12	4.23459736e-02
4.91336286e-01	1.19520001e-01	6.15234417e-03	1.41715494e+00	1.65781422e+05	3.00000000e+02	1.78668539e+03	4.74605516e+06	1.73650318e+00	1.80238478e-05	5.25096806e-03	3.63556144e-12	4.48773788e-02
4.90133480e-01	1.19520001e-01	6.15234417e-03	1.42636085e+00	1.66801463e+05	3.00000000e+02	1.78594053e+03	4.73342825e+06	1.74225384e+00	1.80188535e-05	5.43826126e-03	3.77914462e-12	4.63569792e-02
4.88933340e-01	1.19520001e-01	6.15234417e-03	1.43218957e+00	1.67964831e+05	3.00000000e+02	1.79811682e+03	4.79376054e+06	1.75185722e+00	1.80177635e-05	5.44350255e-03	3.73553644e-12	4.64212785e-02
4.87735882e-01	1.19520001e-01	6.15234417e-03	1.44129643e+00	1.69097695e+05	3.00000000e+02	1.83121303e+03	4.80686476e+06	1.77297194e+00	1.80233125e-05	5.24679273e-03	3.67375559e-12	4.48667255e-02
4.86541077e-01	1.19520001e-01	6.15234417e-03	1.45033674e+00	1.70401304e+05	3.00000000e+02	1.86939665e+03	4.84861126e+06	1.79562199e+00	1.80368470e-05	4.86734758e-03	3.43744318e-12	4.17695157e-02
4.92541761e-01	1.19520001e-01	5.56640653e-03	1.34215018e+00	1.60109122e+05	3.00000000e+02	1.63044534e+03	4.85533396e+06	1.61914183e+00	1.79704590e-05	1.00741960e-02	7.65192738e-12	8.25022201e-02
4.91336287e-01	1.19520001e-01	5.56640653e-03	1.34693573e+00	1.61594402e+05	3.00000000e+02	1.62507122e+03	4.94095751e+06	1.61977832e+00	1.79657122e-05	1.06666464e-02	8.24306816e-12	8.70398336e-02
4.90133479e-01	1.19520001e-01	5.56640653e-03	1.35000048e+00	1.62590555e+05	3.00000000e+02	1.63311400e+03	5.00596254e+06	1.62583666e+00	1.79634059e-05	1.09972992e-02	8.71925238e-12	8.95816890e-02
4.88933340e-01	1.19520001e-01	5.56640653e-03	1.35724079e+00	1.63821018e+05	3.00000000e+02	1.65350813e+03	5.05578692e+06	1.64041788e+00	1.79625300e-05	1.10075829e-02	9.09171978e-12	8.97065007e-02
4.87735882e-01	1.19520001e-01	5.56640653e-03	1.37006990e+00	1.65490347e+05	3.00000000e+02	1.68190667e+03	5.09448245e+06	1.66212436e+00	1.79638401e-05	1.06879836e-02	9.29803333e-12	8.73084459e-02
4.86541077e-01	1.19520001e-01	5.56640653e-03	1.39195469e+00	1.67979037e+05	3.00000000e+02	1.71446202e+03	5.11514359e+06	1.69102724e+00	1.79686838e-05	1.00681886e-02	9.19368094e-12	8.25738741e-02
4.91336286e-01	1.19520001e-01	4.98046889e-03	1.25214656e+00	1.57721023e+05	3.00000000e+02	1.52345616e+03	5.43839282e+06	1.51360874e+00	1.79481348e-05	1.85740741e-02	1.42555591e-11	1.42252995e-01
4.90133480e-01	1.19520001e-01	4.98046889e-03	1.25396641e+00	1.58797376e+05	3.00000000e+02	1.54251947e+03	5.53723540e+06	1.52429101e+00	1.79465418e-05	1.90042148e-02	1.54884726e-11	1.45128955e-01
4.88933340e-01	1.19520001e-01	4.98046889e-03	1.26279161e+00	1.60363662e+05	3.00000000e+02	1.56815916e+03	5.61227605e+06	1.54238556e+00	1.79456150e-05	1.90117153e-02	1.66940957e-11	1.45299744e-01
4.87735882e-01	1.19520001e-01	4.98046889e-03	1.28087509e+00	1.62734506e+05	3.00000000e+02	1.59577683e+03	5.66512332e+06	1.56703068e+00	1.79453674e-05	1.86163059e-02	1.77413727e-11	1.42884138e-01
4.86541077e-01	1.19520001e-01	4.98046889e-03	1.31028428e+00	1.66225088e+05	3.00000000e+02	1.61895468e+03	5.69900449e+06	1.59640348e+00	1.79451804e-05	1.78644013e-02	1.85142829e-11	1.38097512e-01
4.91336286e-01	1.19520001e-01	4.39453149e-03	1.14435293e+00	1.54274026e+05	3.00000000e+02	1.49675450e+03	6.21486487e+06	1.43633316e+00	1.79221652e-05	2.79498037e-02	2.30721003e-11	1.93067055e-01
4.90133480e-01	1.19520001e-01	4.39453148e-03	1.14755851e+00	1.55576422e+05	3.00000000e+02	1.51987203e+03	6.32025154e+06	1.44965597e+00	1.79191072e-05	2.84079133e-02	2.52662853e-11	1.95080354e-01
4.88933340e-01	1.19520001e-01	4.39453149e-03	1.15925894e+00	1.57620212e+05	3.00000000e+02	1.54487052e+03	6.40476837e+06	1.46897819e+00	1.79188985e-05	2.84396480e-02	2.74018982e-11	1.95218296e-01
4.87735883e-01	1.19520001e-01	4.39453149e-03	1.18122879e+00	1.60712420e+05	3.00000000e+02	1.56771459e+03	6.47714897e+06	1.49358149e+00	1.79209889e-05	2.80851043e-02	2.94505630e-11	1.93737436e-01
4.86541078e-01	1.19520001e-01	4.39453149e-03	1.21403578e+00	1.64963721e+05	3.00000000e+02	1.58278230e+03	6.53578205e+06	1.52113724e+00	1.79245525e-05	2.73974982e-02	3.13427751e-11	1.90780971e-01
4.85348896e-01	1.19520001e-01	4.39453149e-03	1.25522371e+00	1.70023302e+05	3.00000000e+02	1.58692159e+03	6.57097437e+06	1.54836805e+00	1.79289347e-05	2.64386668e-02	3.28841740e-11	1.86456508e-01
4.91336287e-01	1.19520001e-01	3.80859396e-03	1.04057933e+00	1.51188715e+05	3.00000000e+02	1.50466091e+03	6.95286664e+06	1.38105204e+00	1.78212129e-05	3.79094104e-02	3.90820955e-11	2.25069603e-01
4.90133480e-01	1.19520001e-01	3.80859396e-03	1.04585453e+00	1.52839646e+05	3.00000000e+02	1.52911417e+03	7.05985887e+06	1.39623877e+00	1.78150189e-05	3.83788719e-02	4.26439600e-11	2.25987407e-01
4.88933340e-01	1.19520001e-01	3.80859396e-03	1.06015724e+00	1.55434472e+05	3.00000000e+02	1.55253950e+03	7.16140082e+06	1.41657196e+00	1.78138673e-05	3.84534492e-02	4.58726517e-11	2.26149837e-01
4.87735883e-01	1.19520001e-01	3.80859396e-03	1.08437489e+00	1.59181602e+05	3.00000000e+02	1.57124369e+03	7.26645152e+06	1.44100389e+00	1.78170883e-05	3.81825154e-02	4.87360309e-11	2.25695945e-01
4.86541078e-01	1.19520001e-01	3.80859396e-03	1.11780072e+00	1.64001520e+05	3.00000000e+02	1.58042157e+03	7.36572680e+06	1.46678725e+00	1.78234563e-05	3.76300648e-02	5.12376877e-11	2.24693667e-01
4.85348895e-01	1.19520001e-01	3.80859396e-03	1.15790385e+00	1.69521104e+05	3.00000000e+02	1.57955251e+03	7.45079038e+06	1.49168696e+00	1.78326536e-05	3.68482226e-02	5.33791679e-11	2.23135005e-01
4.91336287e-01	1.19520001e-01	3.22265644e-03	9.40195577e-01	1.48532118e+05	3.00000000e+02	1.51156699e+03	7.40184484e+06	1.32797332e+00	1.76572813e-05	4.93167298e-02	7.28552059e-11	2.38130206e-01
4.90133479e-01	1.19520001e-01	3.22265643e-03	9.47936225e-01	1.50596006e+05	3.00000000e+02	1.53520980e+03	7.50498161e+06	1.34442323e+00	1.76493130e-05	4.97976922e-02	7.84337788e-11	2.38418996e-01
4.88933340e-01	1.19520001e-01	3.22265644e-03	9.64682475e-01	1.53721418e+05	3.00000000e+02	1.55566012e+03	7.62028718e+06	1.36541946e+00	1.76471204e-05	4.98576685e-02	8.29467525e-11	2.38540035e-01
4.87735882e-01	1.19520001e-01	3.22265644e-03	9.90510528e-01	1.57994944e+05	3.00000000e+02	1.56991998e+03	7.74886534e+06	1.38968205e+00	1.76499404e-05	4.95709051e-02	8.65868968e-11	2.38525744e-01
4.86541078e-01	1.19520001e-01	3.22265643e-03	1.02392509e+00	1.63215289e+05	3.00000000e+02	1.57524794e+03	7.88054290e+06	1.41480527e+00	1.76564045e-05	4.90162614e-02	8.93176685e-11	2.38395693e-01
4.85348895e-01	1.19520001e-01	3.22265643e-03	1.06295416e+00	1.69066264e+05	3.00000000e+02	1.57203305e+03	8.00739075e+06	1.43924878e+00	1.76661787e-05	4.82494343e-02	9.12144440e-11	2.38147547e-01
4.91336287e-01	1.19520001e-01	2.63671891e-03	8.35465567e-01	1.46377114e+05	3.00000000e+02	1.48457973e+03	7.49522108e+06	1.25843785e+00	1.74070291e-05	6.46968307e-02	1.38414795e-10	2.41122508e-01
4.90133480e-01	1.19520001e-01	2.63671891e-03	8.45107562e-01	1.48852810e+05	3.00000000e+02	1.50588962e+03	7.60771303e+06	1.27543196e+00	1.73974522e-05	6.51695851e-02	1.47296162e-10	2.41167390e-01
4.88933340e-01	1.19520001e-01	2.63671891e-03	8.63306577e-01	1.52444319e+05	3.00000000e+02	1.52372556e+03	7.74650761e+06	1.29684826e+00	1.73955083e-05	6.51486259e-02	1.55080965e-10	2.41254720e-01
4.87735883e-01	1.19520001e-01	2.63671891e-03	8.89445149e-01	1.57122075e+05	3.00000000e+02	1.53487664e+03	7.90733440e+06	1.32081781e+00	1.73997814e-05	6.47349932e-02	1.61659539e-10	2.41375120e-01
4.86541078e-01	1.19520001e-01	2.63671891e-03	9.22041244e-01	1.62622132e+05	3.00000000e+02	1.53719692e+03	8.06762233e+06	1.34508806e+00	1.74092312e-05	6.40176429e-02	1.66341919e-10	2.41512963e-01
4.85348895e-01	1.19520001e-01	2.63671891e-03	9.59630449e-01	1.68699258e+05	3.00000000e+02	1.53075084e+03	8.22566490e+06	1.36832368e+00	1.74223128e-05	6.30511560e-02	1.68591380e-10	2.41649176e-01
4.92541760e-01	1.19520001e-01	2.05078133e-03	7.21908786e-01	1.42851679e+05	3.00000000e+02	1.37548052e+03	6.91977479e+06	1.15100237e+00	1.70287414e-05	8.60297472e-02	2.07561890e-10	2.38627539e-01
4.91336287e-01	1.19520001e-01	2.05078133e-03	7.24750391e-01	1.44560521e+05	3.00000000e+02	1.39297659e+03	7.04831217e+06	1.16225204e+00	1.70042000e-05	8.71070797e-02	2.16258680e-10	2.38494275e-01
4.90133479e-01	1.19520001e-01	2.05078133e-03	7.35340924e-01	1.47409963e+05	3.00000000e+02	1.40963164e+03	7.21793095e+06	1.17855563e+00	1.69917256e-05	8.75305218e-02	2.26039470e-10	2.38547754e-01
4.88933340e-01	1.19520001e-01	2.05078133e-03	7.53215200e-01	1.51364206e+05	3.00000000e+02	1.42524459e+03	7.40558833e+06	1.19948201e+00	1.69902936e-05	8.74138152e-02	2.38034987e-10	2.38737107e-01
4.87735882e-01	1.19520001e-01	2.05078133e-03	7.77696382e-01	1.56318467e+05	3.00000000e+02	1.43635592e+03	7.60260743e+06	1.22307114e+00	1.69970964e-05	8.68659540e-02	2.51438857e-10	2.39008328e-01
4.86541078e-01	1.19520001e-01	2.05078133e-03	8.07450174e-01	1.62000416e+05	3.00000000e+02	1.43966921e+03	7.80518353e+06	1.24677834e+00	1.70094535e-05	8.59683727e-02	2.63763429e-10	2.39318515e-01
4.85348895e-01	1.19520001e-01	2.05078133e-03	8.41643110e-01	1.68233252e+05	3.00000000e+02	1.43376133e+03	8.02541221e+06	1.26910659e+00	1.70252972e-05	8.47579734e-02	2.72646855e-10	2.39643813e-01
4.92541760e-01	1.19520001e-01	1.46484381e-03	6.10501159e-01	1.41543726e+05	3.00000000e+02	1.21617143e+03	6.42138775e+06	1.02949058e+00	1.64629876e-05	1.16014551e-01	2.02550581e-10	2.32497630e-01
4.91336286e-01	1.19520001e-01	1.46484381e-03	6.14628031e-01	1.43425648e+05	3.00000000e+02	1.24872520e+03	6.44420233e+06	1.04748408e+00	1.64506315e-05	1.16983078e-01	2.16366257e-10	2.32166445e-01
4.90133480e-01	1.19520001e-01	1.46484381e-03	6.24858378e-01	1.46469757e+05	3.00000000e+02	1.27167355e+03	6.56886876e+06	1.06610192e+00	1.64463783e-05	1.17342750e-01	2.29012525e-10	2.31990207e-01
4.88933340e-01	1.19520001e-01	1.46484381e-03	6.40853933e-01	1.50650816e+05	3.00000000e+02	1.29154796e+03	6.74002880e+06	1.08780573e+00	1.64503005e-05	1.17230108e-01	2.45165299e-10	2.31954074e-01
4.87735882e-01	1.19520001e-01	1.46484381e-03	6.61838385e-01	1.55783888e+05	3.00000000e+02	1.30763516e+03	6.92625290e+06	1.11160987e+00	1.64610396e-05	1.16744971e-01	2.65506415e-10	2.32020004e-01
4.86541078e-01	1.19520001e-01	1.46484381e-03	6.87039438e-01	1.61576322e+05	3.00000000e+02	1.31765132e+03	7.09046394e+06	1.13579241e+00	1.64771656e-05	1.15933443e-01	2.87745001e-10	2.32151905e-01
4.85348896e-01	1.19520001e-01	1.46484381e-03	7.15285434e-01	1.67926071e+05	3.00000000e+02	1.31593539e+03	7.38128580e+06	1.15707975e+00	1.64924078e-05	1.14783221e-01	3.08094188e-10	2.32332675e-01
4.92541761e-01	1.19520001e-01	8.78906287e-04	5.25749937e-01	1.40328678e+05	3.00000000e+02	1.12685610e+03	5.11039668e+06	9.45716462e-01	1.60085973e-05	1.45864167e-01	1.29642952e-10	2.19982856e-01
4.91336287e-01	1.19520001e-01	8.78906287e-04	5.30701708e-01	1.42525260e+05	3.00000000e+02	1.15477656e+03	5.18356235e+06	9.62658819e-01	1.59952935e-05	1.46725102e-01	1.38947470e-10	2.18506586e-01
4.90133479e-01	1.19520001e-01	8.78906286e-04	5.40439966e-01	1.45862468e+05	3.00000000e+02	1.17993231e+03	5.28926390e+06	9.82517660e-01	1.59864596e-05	1.47261958e-01	1.52533462e-10	2.17099390e-01
4.88933340e-01	1.19520001e-01	8.78906287e-04	5.54436104e-01	1.50210575e+05	3.00000000e+02	1.20193591e+03	5.39349099e+06	1.00467748e+00	1.59819631e-05	1.47563901e-01	1.70756758e-10	2.15795010e-01
4.87735882e-01	1.19520001e-01	8.78906286e-04	5.71752038e-01	1.55417370e+05	3.00000000e+02	1.22114952e+03	5.52626061e+06	1.02850014e+00	1.59799094e-05	1.47684547e-01	1.94493987e-10	2.14517442e-01
4.86541078e-01	1.19520001e-01	8.78906286e-04	5.91842749e-01	1.61281797e+05	3.00000000e+02	1.23699619e+03	5.65542206e+06	1.05309191e+00	1.59812761e-05	1.47632534e-01	2.24606562e-10	2.13242528e-01
4.85348896e-01	1.19520001e-01	8.78906287e-04	6.14335718e-01	1.67688978e+05	3.00000000e+02	1.25048263e+03	5.79521484e+06	1.07841888e+00	1.59861770e-05	1.47366746e-01	2.62349023e-10	2.11993907e-01
4.92541761e-01	1.19520001e-01	2.92968761e-04	4.80638515e-01	1.39876671e+05	3.00000000e+02	1.09567659e+03	4.19747638e+06	9.15054699e-01	1.55988940e-05	1.67284273e-01	6.35889326e-11	1.79889021e-01
4.91336287e-01	1.19520001e-01	2.92968761e-04	4.85706134e-01	1.42132335e+05	3.00000000e+02	1.12432630e+03	4.21656470e+06	9.33205161e-01	1.55756518e-05	1.68308961e-01	7.06796909e-11	1.73184593e-01
4.90133479e-01	1.19520001e-01	2.92968761e-04	4.94604944e-01	1.45570723e+05	3.00000000e+02	1.14987930e+03	4.25024085e+06	9.53772389e-01	1.55525281e-05	1.69338471e-01	7.99611378e-11	1.66065949e-01
4.88933340e-01	1.19520001e-01	2.92968761e-04	5.06646968e-01	1.49986226e+05	3.00000000e+02	1.17192364e+03	4.28589942e+06	9.75992734e-01	1.55290962e-05	1.70396605e-01	9.18383353e-11	1.58440006e-01
4.87735883e-01	1.19520001e-01	2.92968761e-04	5.21306707e-01	1.55214475e+05	3.00000000e+02	1.19026370e+03	4.42842052e+06	9.99270141e-01	1.55051412e-05	1.71499003e-01	1.06531021e-10	1.50261628e-01
4.86541078e-01	1.19520001e-01	2.92968761e-04	5.37220251e-01	1.61084181e+05	3.00000000e+02	1.20547569e+03	4.53090476e+06	1.02248184e+00	1.54806858e-05	1.72657786e-01	1.24633087e-10	1.41515500e-01
4.85348896e-01	1.19520001e-01	2.92968761e-04	5.54699708e-01	1.67517847e+05	3.00000000e+02	1.21762786e+03	4.54770399e+06	1.04587482e+00	1.54559938e-05	1.73875332e-01	1.46929979e-10	1.32215055e-01
3.84001315e-01	1.19520001e-01	6.09375024e-03	1.30742060e+00	1.28020804e+05	3.00000000e+02	7.92375912e+02	1.85510401e+06	1.09940560e+00	1.82098234e-05	2.76648372e-76	-6.93239879e-94	-1.44837781e-74
3.84001314e-01	1.19520001e-01	5.15625020e-03	1.30743056e+00	1.28022103e+05	3.00000000e+02	7.92393713e+02	1.85514432e+06	1.09942214e+00	1.82098234e-05	6.23061739e-78	-9.74883115e-95	-3.33647274e-76
3.85455906e-01	1.19520001e-01	4.21875017e-03	1.41380963e+00	1.38472411e+05	3.00000000e+02	7.06615667e+02	1.85902097e+06	1.07962206e+00	1.82098234e-05	1.02450620e-76	-1.77837741e-93	-4.87590647e-75
3.88199389e-01	1.19520001e-01	1.40625005e-03	1.63706036e+00	1.62763296e+05	3.00000000e+02	7.37768818e+02	2.09941262e+06	1.18707223e+00	1.82098234e-05	3.53408382e-74	5.86152753e-94	3.18806364e-73
3.88199389e-01	1.19520001e-01	4.68750019e-04	1.63710536e+00	1.62767585e+05	3.00000000e+02	7.37735618e+02	2.09939432e+06	1.18706184e+00	1.82098234e-05	3.36755606e-74	1.39454427e-93	3.05774507e-73
3.96271244e-01	1.19520001e-01	8.90625036e-03	1.44723819e+00	1.43690230e+05	3.00000000e+02	9.97394628e+02	2.07695917e+06	1.29774143e+00	1.82098234e-05	1.10330206e-49	5.34953519e-66	2.45995328e-49
3.95249277e-01	1.19520001e-01	8.90625035e-03	1.49026314e+00	1.48765965e+05	3.00000000e+02	1.01659998e+03	2.16455277e+06	1.32950869e+00	1.82098234e-05	3.53649874e-52	1.40547569e-68	7.71268795e-52
3.94186422e-01	1.19520001e-01	8.90625036e-03	1.53806710e+00	1.54392689e+05	3.00000000e+02	1.02756304e+03	2.25480896e+06	1.35792733e+00	1.82098234e-05	1.11318123e-54	3.45494779e-71	2.24806145e-54
3.93081054e-01	1.19520001e-01	8.90625035e-03	1.58764802e+00	1.60165834e+05	3.00000000e+02	1.02345009e+03	2.33628739e+06	1.37687685e+00	1.82098234e-05	3.34493368e-57	7.59061547e-74	5.50427446e-57
3.91931475e-01	1.19520001e-01	8.90625036e-03	1.63329379e+00	1.65348942e+05	3.00000000e+02	9.97098278e+02	2.39382675e+06	1.37843341e+00	1.82098234e-05	9.48641057e-60	1.45617705e-76	7.38859735e-60
3.90735894e-01	1.19520001e-01	8.90625035e-03	1.66457531e+00	1.68679586e+05	3.00000000e+02	9.44646077e+02	2.40982303e+06	1.35447483e+00	1.82098234e-05	2.47797536e-62	2.28219859e-79	-3.42400043e-62
3.89492497e-01	1.19520001e-01	8.90625035e-03	1.66200488e+00	1.68294009e+05	3.00000000e+02	8.78934882e+02	2.39758773e+06	1.30550683e+00	1.82098234e-05	5.86229293e-65	2.85654572e-82	-4.00934229e-64
3.88199389e-01	1.19520001e-01	8.90625035e-03	1.63710536e+00	1.62767585e+05	3.00000000e+02	7.37735612e+02	2.09939431e+06	1.18706183e+00	1.82098234e-05	1.16005115e-67	2.74892143e-85	-2.46745355e-66
3.86854545e-01	1.19520001e-01	8.90625036e-03	1.53478283e+00	1.51567559e+05	3.00000000e+02	6.95412793e+02	1.99080957e+06	1.11591074e+00	1.82098234e-05	1.85138929e-70	1.12258396e-88	-7.81314803e-69
3.96271244e-01	1.19520001e-01	7.96875032e-03	1.44724128e+00	1.43690194e+05	3.00000000e+02	9.97394849e+02	2.07692066e+06	1.29774296e+00	1.82098234e-05	1.16763722e-48	5.43176636e-65	2.65227319e-48
3.95249277e-01	1.19520001e-01	7.96875032e-03	1.49027922e+00	1.48767239e+05	3.00000000e+02	1.01659683e+03	2.16451662e+06	1.32951380e+00	1.82098234e-05	3.74829461e-51	1.41389586e-67	8.17883799e-51
3.94186422e-01	1.19520001e-01	7.96875032e-03	1.53809550e+00	1.54395081e+05	3.00000000e+02	1.02754571e+03	2.25476042e+06	1.35792842e+00	1.82098234e-05	1.15997185e-53	3.42259320e-70	2.32021664e-53
3.93081054e-01	1.19520001e-01	7.96875032e-03	1.58768347e+00	1.60168706e+05	3.00000000e+02	1.02341432e+03	2.33621534e+06	1.37686816e+00	1.82098234e-05	3.40939332e-56	7.39507444e-73	5.47677702e-56
3.91931474e-01	1.19520001e-01	7.96875032e-03	1.63332605e+00	1.65351234e+05	3.00000000e+02	9.97047643e+02	2.39372980e+06	1.37841202e+00	1.82098234e-05	9.44517128e-59	1.39551407e-75	6.63012253e-59
3.90735895e-01	1.19520001e-01	7.96875032e-03	1.66459037e+00	1.68680041e+05	3.00000000e+02	9.44595991e+02	2.40971845e+06	1.35444505e+00	1.82098234e-05	2.41037078e-61	2.15336479e-78	-3.72800828e-61
3.89492497e-01	1.19520001e-01	7.96875032e-03	1.66199029e+00	1.68291842e+05	3.00000000e+02	8.78915972e+02	2.39752036e+06	1.30548706e+00	1.82098234e-05	5.57642386e-64	2.65676935e-81	-4.02624652e-63
3.88199389e-01	1.19520001e-01	7.96875032e-03	1.63706036e+00	1.62763296e+05	3.00000000e+02	7.37768813e+02	2.09941262e+06	1.18707223e+00	1.82098234e-05	1.08078204e-66	2.52648419e-84	-2.40201359e-65
3.86854544e-01	1.19520001e-01	7.96875032e-03	1.53473309e+00	1.51563898e+05	3.00000000e+02	6.95503799e+02	1.99094191e+06	1.11596566e+00	1.82098234e-05	1.69210470e-69	1.18003127e-87	-7.45351459e-68
3.96271244e-01	1.19520001e-01	7.03125028e-03	1.44724030e+00	1.43690244e+05	3.00000000e+02	9.97425399e+02	2.07693717e+06	1.29776240e+00	1.82098234e-05	3.37912619e-48	1.40751599e-64	7.68837836e-48
3.95249278e-01	1.19520001e-01	7.03125028e-03	1.49029354e+00	1.48768670e+05	3.00000000e+02	1.01660512e+03	2.16451691e+06	1.32952561e+00	1.82098234e-05	1.10933603e-50	3.69049576e-67	2.39734663e-50
3.94186422e-01	1.19520001e-01	7.03125028e-03	1.53812527e+00	1.54397927e+05	3.00000000e+02	1.02753423e+03	2.25474546e+06	1.35793397e+00	1.82098234e-05	3.44262782e-53	8.92423243e-70	6.72948934e-53
3.93081054e-01	1.19520001e-01	7.03125028e-03	1.58772215e+00	1.60172135e+05	3.00000000e+02	1.02337591e+03	2.33616686e+06	1.37685910e+00	1.82098234e-05	1.00800271e-55	1.92082002e-72	1.53356075e-55
3.91931475e-01	1.19520001e-01	7.03125028e-03	1.63336243e+00	1.65354010e+05	3.00000000e+02	9.96984522e+02	2.39363962e+06	1.37838374e+00	1.82098234e-05	2.77478668e-58	3.60764190e-75	1.47739285e-58
3.90735895e-01	1.19520001e-01	7.03125028e-03	1.66460955e+00	1.68680707e+05	3.00000000e+02	9.44522960e+02	2.40959378e+06	1.35440049e+00	1.82098234e-05	7.02977379e-61	5.53985452e-78	-1.35082412e-60
3.89492497e-01	1.19520001e-01	7.03125028e-03	1.66197931e+00	1.68289460e+05	3.00000000e+02	8.78864447e+02	2.39739610e+06	1.30544448e+00	1.82098234e-05	1.61438623e-63	6.80358695e-81	-1.30892929e-62
3.88199389e-01	1.19520001e-01	7.03125028e-03	1.63701665e+00	1.62758331e+05	3.00000000e+02	7.37768989e+02	2.09935121e+06	1.18705652e+00	1.82098234e-05	3.10717836e-66	6.44440826e-84	-7.60010940e-65
3.86854545e-01	1.19520001e-01	7.03125028e-03	1.53468302e+00	1.51559389e+05	3.00000000e+02	6.95567420e+02	1.99098794e+06	1.11599850e+00	1.82098234e-05	4.83356800e-69	3.07060442e-87	-2.33106759e-67
3.96271244e-01	1.19520001e-01	6.09375024e-03	1.44724544e+00	1.43690829e+05	3.00000000e+02	9.97431050e+02	2.07694559e+06	1.29776838e+00	1.82098234e-05	4.42968344e-50	1.46949300e-66	1.00290380e-49
3.95249278e-01	1.19520001e-01	6.09375024e-03	1.49031068e+00	1.48770441e+05	3.00000000e+02	1.01661177e+03	2.16452328e+06	1.32953761e+00	1.82098234e-05	1.79548063e-52	4.66887119e-69	3.84496548e-52
3.94186422e-01	1.19520001e-01	6.09375024e-03	1.53815636e+00	1.54400897e+05	3.00000000e+02	1.02751814e+03	2.25472944e+06	1.35793707e+00	1.82098234e-05	6.63611976e-55	1.32149733e-71	1.27300640e-54
3.93081054e-01	1.19520001e-01	6.09375024e-03	1.58776003e+00	1.60175376e+05	3.00000000e+02	1.02332930e+03	2.33610740e+06	1.37684417e+00	1.82098234e-05	2.25528234e-57	3.24590820e-74	3.26761014e-57
3.91931475e-01	1.19520001e-01	6.09375024e-03	1.63339493e+00	1.65356297e+05	3.00000000e+02	9.96916729e+02	2.39353972e+06	1.37835059e+00	1.82098234e-05	7.07107466e-60	6.82326015e-77	2.62779273e-60
3.90735894e-01	1.19520001e-01	6.09375024e-03	1.66462272e+00	1.68680787e+05	3.00000000e+02	9.44454638e+02	2.40947119e+06	1.35435686e+00	1.82098234e-05	2.00712410e-62	1.15390015e-79	-4.65400179e-62
3.89492497e-01	1.19520001e-01	6.09375024e-03	1.66196336e+00	1.68286773e+05	3.00000000e+02	8.78827630e+02	2.39729135e+06	1.30541087e+00	1.82098234e-05	5.08705596e-65	1.54045094e-82	-4.61604171e-64
3.88199389e-01	1.19520001e-01	6.09375024e-03	1.63697310e+00	1.62753639e+05	3.00000000e+02	7.37784533e+02	2.09931534e+06	1.18705324e+00	1.82098234e-05	1.06596065e-67	1.56754568e-85	-2.85145157e-66
3.86854544e-01	1.19520001e-01	6.09375024e-03	1.53463892e+00	1.51555569e+05	3.00000000e+02	6.95635539e+02	1.99104453e+06	1.11603711e+00	1.82098234e-05	1.78314709e-70	7.13106802e-89	-9.17882297e-69
3.85455907e-01	1.19520001e-01	6.09375024e-03	1.41381736e+00	1.38472654e+05	3.00000000e+02	7.06572753e+02	1.85896200e+06	1.07959223e+00	1.82098234e-05	2.39356807e-73	-9.44054936e-92	-1.49073075e-71
3.96271244e-01	1.19520001e-01	5.15625020e-03	1.44725311e+00	1.43691528e+05	3.00000000e+02	9.97413040e+02	2.07693859e+06	1.29776010e+00	1.82098234e-05	3.42036150e-52	9.05686791e-69	7.69560721e-52
3.95249277e-01	1.19520001e-01	5.15625020e-03	1.49032196e+00	1.48771630e+05	3.00000000e+02	1.01661597e+03	2.16453023e+06	1.32954538e+00	1.82098234e-05	1.67224627e-54	3.40330408e-71	3.54736493e-54
3.94186422e-01	1.19520001e-01	5.15625020e-03	1.53817541e+00	1.54402768e+05	3.00000000e+02	1.02751010e+03	2.25472508e+06	1.35794016e+00	1.82098234e-05	7.23594722e-57	1.10761094e-73	1.36183308e-56
3.93081054e-01	1.19520001e-01	5.15625020e-03	1.58778264e+00	1.60177338e+05	3.00000000e+02	1.02330179e+03	2.33607481e+06	1.37683546e+00	1.82098234e-05	2.81645422e-59	3.06242671e-76	3.87949103e-59
3.91931474e-01	1.19520001e-01	5.15625020e-03	1.63341326e+00	1.65357603e+05	3.00000000e+02	9.96877988e+02	2.39348504e+06	1.37833154e+00	1.82098234e-05	9.94127380e-62	7.12482738e-79	2.15826671e-62
3.90735895e-01	1.19520001e-01	5.15625020e-03	1.66462863e+00	1.68680732e+05	3.00000000e+02	9.44418337e+02	2.40940734e+06	1.35433324e+00	1.82098234e-05	3.13014510e-64	1.31507465e-81	-8.37777695e-64
3.89492497e-01	1.19520001e-01	5.15625020e-03	1.66195198e+00	1.68285116e+05	3.00000000e+02	8.78812031e+02	2.39724196e+06	1.30539482e+00	1.82098234e-05	8.68931251e-67	1.89491195e-84	-8.61138444e-66
3.88199389e-01	1.19520001e-01	5.15625020e-03	1.63694678e+00	1.62750910e+05	3.00000000e+02	7.37798447e+02	2.09930419e+06	1.18705489e+00	1.82098234e-05	1.97179537e-69	2.04236987e-87	-5.65584615e-68