VARIABLES ="X" "Y" "Z" "rho" "press" "temp" "tau_wall" "qdot" "yplus" "muLam" "ZMean" "ZVar" "CMean" 
Zone T ="wall" I = 7342 , F = point
4.93749917e-01	1.19520001e-01	9.08203144e-03	1.44932386e+00	1.68266513e+05	3.00000000e+02	1.52843537e+03	4.75200559e+06	1.61719074e+00	1.81023684e-05	2.16962251e-03	3.09649336e-13	1.99437477e-02
4.92541760e-01	1.19520001e-01	9.08203143e-03	1.48319512e+00	1.72853380e+05	3.00000000e+02	1.51738394e+03	4.82256950e+06	1.62957899e+00	1.81076401e-05	2.12371197e-03	3.32684795e-13	1.96228492e-02
4.91336287e-01	1.19520001e-01	9.08203144e-03	1.51485347e+00	1.77151528e+05	3.00000000e+02	1.50093488e+03	4.88603849e+06	1.63740424e+00	1.81134306e-05	2.07688156e-03	3.55142536e-13	1.92713016e-02
4.90133480e-01	1.19520001e-01	9.08203144e-03	1.53835503e+00	1.80286281e+05	3.00000000e+02	1.47660344e+03	4.92623182e+06	1.63621034e+00	1.81180510e-05	2.02904608e-03	3.66910641e-13	1.88595972e-02
4.88933340e-01	1.19520001e-01	9.08203144e-03	1.55110618e+00	1.81946348e+05	3.00000000e+02	1.44861047e+03	4.94510578e+06	1.62708885e+00	1.81207300e-05	1.97947406e-03	3.63050271e-13	1.83842375e-02
4.87735882e-01	1.19520001e-01	9.08203143e-03	1.55294088e+00	1.82214358e+05	3.00000000e+02	1.42200880e+03	4.95592968e+06	1.61306062e+00	1.81204216e-05	1.92756528e-03	3.43457725e-13	1.78567930e-02
4.86541077e-01	1.19520001e-01	9.08203144e-03	1.54532004e+00	1.81437943e+05	3.00000000e+02	1.40306820e+03	4.97808444e+06	1.59864346e+00	1.81170457e-05	1.87239489e-03	3.12962470e-13	1.73005678e-02
4.93749916e-01	1.19520001e-01	8.49609403e-03	1.44167351e+00	1.68141392e+05	3.00000000e+02	1.44277827e+03	4.79405993e+06	1.57005369e+00	1.80679607e-05	3.22780538e-03	1.09739401e-12	2.87889574e-02
4.92541761e-01	1.19520001e-01	8.49609403e-03	1.47411347e+00	1.72455562e+05	3.00000000e+02	1.41721260e+03	4.85320099e+06	1.57345245e+00	1.80684010e-05	3.24390484e-03	1.21787888e-12	2.89211634e-02
4.91336286e-01	1.19520001e-01	8.49609403e-03	1.50327955e+00	1.76340147e+05	3.00000000e+02	1.38579712e+03	4.90432434e+06	1.57117374e+00	1.80690731e-05	3.25976970e-03	1.33237607e-12	2.90321817e-02
4.90133479e-01	1.19520001e-01	8.49609403e-03	1.52413178e+00	1.79120414e+05	3.00000000e+02	1.35213865e+03	4.93972171e+06	1.56263443e+00	1.80698634e-05	3.26911634e-03	1.41949178e-12	2.90691454e-02
4.88933340e-01	1.19520001e-01	8.49609403e-03	1.53471692e+00	1.80563391e+05	3.00000000e+02	1.32188801e+03	4.96177576e+06	1.55035753e+00	1.80704927e-05	3.25981072e-03	1.45956620e-12	2.89333226e-02
4.87735882e-01	1.19520001e-01	8.49609403e-03	1.53605730e+00	1.80820889e+05	3.00000000e+02	1.29844717e+03	4.97701563e+06	1.53722968e+00	1.80703878e-05	3.21999543e-03	1.44039647e-12	2.85341876e-02
4.86541077e-01	1.19520001e-01	8.49609403e-03	1.53003858e+00	1.80419927e+05	3.00000000e+02	1.28212023e+03	5.01493225e+06	1.52429798e+00	1.80732426e-05	3.14459297e-03	1.36023601e-12	2.78776824e-02
4.93749917e-01	1.19520001e-01	7.91015663e-03	1.42010937e+00	1.67640839e+05	3.00000000e+02	1.39960327e+03	4.96420372e+06	1.53889946e+00	1.80195320e-05	4.96989083e-03	1.99266778e-12	4.30490343e-02
4.92541761e-01	1.19520001e-01	7.91015663e-03	1.44842029e+00	1.71688581e+05	3.00000000e+02	1.36593848e+03	5.04972065e+06	1.53599396e+00	1.80120750e-05	5.07398488e-03	2.15522814e-12	4.39425764e-02
4.91336286e-01	1.19520001e-01	7.91015662e-03	1.47446111e+00	1.75311567e+05	3.00000000e+02	1.33351678e+03	5.10504507e+06	1.53118736e+00	1.80126642e-05	5.17256447e-03	2.35023636e-12	4.47240188e-02
4.90133480e-01	1.19520001e-01	7.91015662e-03	1.49186440e+00	1.77864357e+05	3.00000000e+02	1.30366498e+03	5.14801656e+06	1.52244614e+00	1.80175660e-05	5.24957170e-03	2.55201279e-12	4.53226198e-02
4.88933340e-01	1.19520001e-01	7.91015662e-03	1.49965203e+00	1.79176553e+05	3.00000000e+02	1.27665779e+03	5.18860537e+06	1.51043794e+00	1.80185566e-05	5.28494416e-03	2.72253169e-12	4.55715572e-02
4.87735883e-01	1.19520001e-01	7.91015662e-03	1.50054861e+00	1.79462003e+05	3.00000000e+02	1.25246489e+03	5.21010623e+06	1.49646852e+00	1.80189971e-05	5.26434897e-03	2.82956897e-12	4.53634308e-02
4.86541077e-01	1.19520001e-01	7.91015663e-03	1.49665849e+00	1.79155977e+05	3.00000000e+02	1.23146471e+03	5.24107282e+06	1.48226006e+00	1.80151681e-05	5.17714252e-03	2.83219222e-12	4.46002649e-02
4.92541760e-01	1.19520001e-01	7.32421899e-03	1.41368556e+00	1.70514170e+05	3.00000000e+02	1.42194833e+03	5.31683372e+06	1.55071649e+00	1.79835861e-05	6.96956762e-03	2.12087752e-12	5.91573694e-02
4.91336286e-01	1.19520001e-01	7.32421899e-03	1.43481103e+00	1.73684391e+05	3.00000000e+02	1.39287826e+03	5.37970494e+06	1.54596694e+00	1.79863946e-05	7.10515139e-03	2.30173302e-12	6.01886703e-02
4.90133480e-01	1.19520001e-01	7.32421899e-03	1.44859405e+00	1.75870091e+05	3.00000000e+02	1.36049822e+03	5.43730733e+06	1.53526064e+00	1.79858350e-05	7.21368531e-03	2.48640135e-12	6.09972318e-02
4.88933340e-01	1.19520001e-01	7.32421899e-03	1.45564732e+00	1.76990421e+05	3.00000000e+02	1.32361855e+03	5.46937408e+06	1.51814730e+00	1.79839869e-05	7.27908220e-03	2.62823033e-12	6.14651122e-02
4.87735883e-01	1.19520001e-01	7.32421899e-03	1.45910987e+00	1.77355059e+05	3.00000000e+02	1.28726172e+03	5.46129522e+06	1.49891260e+00	1.79842156e-05	7.28696712e-03	2.74382559e-12	6.15064205e-02
4.86541078e-01	1.19520001e-01	7.32421899e-03	1.45981383e+00	1.77275622e+05	3.00000000e+02	1.25632085e+03	5.43976485e+06	1.48091741e+00	1.79869930e-05	7.22594940e-03	2.85013121e-12	6.10085983e-02
4.92541760e-01	1.19520001e-01	6.73828157e-03	1.35429131e+00	1.69099811e+05	3.00000000e+02	1.65511955e+03	5.98923373e+06	1.63863333e+00	1.79712933e-05	8.58218000e-03	2.38139256e-12	7.16957332e-02
4.91336286e-01	1.19520001e-01	6.73828158e-03	1.36934704e+00	1.71741858e+05	3.00000000e+02	1.63000082e+03	6.08209487e+06	1.63534448e+00	1.79693269e-05	8.72801837e-03	2.58926534e-12	7.28190530e-02
4.90133480e-01	1.19520001e-01	6.73828157e-03	1.37970537e+00	1.73588637e+05	3.00000000e+02	1.60059941e+03	6.14761718e+06	1.62674119e+00	1.79682767e-05	8.84486587e-03	2.80574537e-12	7.37103167e-02
4.88933340e-01	1.19520001e-01	6.73828158e-03	1.38536063e+00	1.74606801e+05	3.00000000e+02	1.56837279e+03	6.18313904e+06	1.61351131e+00	1.79690220e-05	8.91969077e-03	3.00564597e-12	7.42436068e-02
4.87735883e-01	1.19520001e-01	6.73828158e-03	1.38880850e+00	1.75118189e+05	3.00000000e+02	1.53324576e+03	6.19118145e+06	1.59726586e+00	1.79696759e-05	8.94288138e-03	3.18843652e-12	7.43898182e-02
4.86541078e-01	1.19520001e-01	6.73828158e-03	1.39235242e+00	1.75388298e+05	3.00000000e+02	1.49353580e+03	6.16875178e+06	1.57844504e+00	1.79698033e-05	8.90884170e-03	3.34900998e-12	7.41090612e-02
4.92541761e-01	1.19520001e-01	6.15234417e-03	1.30805426e+00	1.66843232e+05	3.00000000e+02	1.81897423e+03	6.39844054e+06	1.68904199e+00	1.79628851e-05	1.00483678e-02	2.90828386e-12	8.28089290e-02
4.91336286e-01	1.19520001e-01	6.15234417e-03	1.31914874e+00	1.68967817e+05	3.00000000e+02	1.79816478e+03	6.48917491e+06	1.68656693e+00	1.79617410e-05	1.02065178e-02	3.18832240e-12	8.39930387e-02
4.90133480e-01	1.19520001e-01	6.15234417e-03	1.32694244e+00	1.70527409e+05	3.00000000e+02	1.77481858e+03	6.55941621e+06	1.68049788e+00	1.79620310e-05	1.03298009e-02	3.47091344e-12	8.48787678e-02
4.88933340e-01	1.19520001e-01	6.15234417e-03	1.33188692e+00	1.71563635e+05	3.00000000e+02	1.75044453e+03	6.61006666e+06	1.67198879e+00	1.79624212e-05	1.04059217e-02	3.72449461e-12	8.54179775e-02
4.87735882e-01	1.19520001e-01	6.15234417e-03	1.33642581e+00	1.72424881e+05	3.00000000e+02	1.72549464e+03	6.64660264e+06	1.66281560e+00	1.79628618e-05	1.04274729e-02	3.94414906e-12	8.55529700e-02
4.86541077e-01	1.19520001e-01	6.15234417e-03	1.34254265e+00	1.73337402e+05	3.00000000e+02	1.69720698e+03	6.66489645e+06	1.65287754e+00	1.79630945e-05	1.03929836e-02	4.11230829e-12	8.52764835e-02
4.92541761e-01	1.19520001e-01	5.56640653e-03	1.25943646e+00	1.63984620e+05	3.00000000e+02	1.94684075e+03	6.79370962e+06	1.71502157e+00	1.79586689e-05	1.17215735e-02	4.51561036e-12	9.50528807e-02
4.91336287e-01	1.19520001e-01	5.56640653e-03	1.26720824e+00	1.65663583e+05	3.00000000e+02	1.92874021e+03	6.88210665e+06	1.71230543e+00	1.79584981e-05	1.19096423e-02	4.96551544e-12	9.64087099e-02
4.90133479e-01	1.19520001e-01	5.56640653e-03	1.27344278e+00	1.67045929e+05	3.00000000e+02	1.91030453e+03	6.95813793e+06	1.70835785e+00	1.79577763e-05	1.20435853e-02	5.39331665e-12	9.73769597e-02
4.88933340e-01	1.19520001e-01	5.56640653e-03	1.27910197e+00	1.68250382e+05	3.00000000e+02	1.89316084e+03	7.02221971e+06	1.70444913e+00	1.79577814e-05	1.21089434e-02	5.74357232e-12	9.78354516e-02
4.87735882e-01	1.19520001e-01	5.56640653e-03	1.28658891e+00	1.69623036e+05	3.00000000e+02	1.87653161e+03	7.07920758e+06	1.70187798e+00	1.79580762e-05	1.21005048e-02	5.99665510e-12	9.77526993e-02
4.86541077e-01	1.19520001e-01	5.56640653e-03	1.29729315e+00	1.71336576e+05	3.00000000e+02	1.85734041e+03	7.12722518e+06	1.70011661e+00	1.79587659e-05	1.20231522e-02	6.12568847e-12	9.71649345e-02
4.91336286e-01	1.19520001e-01	4.98046889e-03	1.21121844e+00	1.62108104e+05	3.00000000e+02	2.01683008e+03	7.32141749e+06	1.71200026e+00	1.79569449e-05	1.43956084e-02	9.89286282e-12	1.13813332e-01
4.90133480e-01	1.19520001e-01	4.98046889e-03	1.21676975e+00	1.63502393e+05	3.00000000e+02	2.00426202e+03	7.41672287e+06	1.71055576e+00	1.79570337e-05	1.45477884e-02	1.07454053e-11	1.14883518e-01
4.88933340e-01	1.19520001e-01	4.98046889e-03	1.22403769e+00	1.65088216e+05	3.00000000e+02	1.99502450e+03	7.51187503e+06	1.71176003e+00	1.79563894e-05	1.45870098e-02	1.14246799e-11	1.15186288e-01
4.87735882e-01	1.19520001e-01	4.98046889e-03	1.23494557e+00	1.67137965e+05	3.00000000e+02	1.98731628e+03	7.60843670e+06	1.71604117e+00	1.79564336e-05	1.45126405e-02	1.18570835e-11	1.14689477e-01
4.86541077e-01	1.19520001e-01	4.98046889e-03	1.25018064e+00	1.69730041e+05	3.00000000e+02	1.97753166e+03	7.70081179e+06	1.72237233e+00	1.79560767e-05	1.43384068e-02	1.19841538e-11	1.13483557e-01
4.91336286e-01	1.19520001e-01	4.39453149e-03	1.15643139e+00	1.58469107e+05	3.00000000e+02	1.99431755e+03	7.67288472e+06	1.66329065e+00	1.79588834e-05	1.83266341e-02	2.11467382e-11	1.39350323e-01
4.90133480e-01	1.19520001e-01	4.39453148e-03	1.16302362e+00	1.60104277e+05	3.00000000e+02	1.98340878e+03	7.79075104e+06	1.66357860e+00	1.79575649e-05	1.85081125e-02	2.31160747e-11	1.40634715e-01
4.88933340e-01	1.19520001e-01	4.39453149e-03	1.17351241e+00	1.62239317e+05	3.00000000e+02	1.97672271e+03	7.91423619e+06	1.66834934e+00	1.79564346e-05	1.85125780e-02	2.47244840e-11	1.40808819e-01
4.87735883e-01	1.19520001e-01	4.39453149e-03	1.18905381e+00	1.65020445e+05	3.00000000e+02	1.97125460e+03	8.03774925e+06	1.67714177e+00	1.79553024e-05	1.83477065e-02	2.57694363e-11	1.39911001e-01
4.86541078e-01	1.19520001e-01	4.39453149e-03	1.20930608e+00	1.68416601e+05	3.00000000e+02	1.96440858e+03	8.16071957e+06	1.68849196e+00	1.79545869e-05	1.80365342e-02	2.60590375e-11	1.38047853e-01
4.85348896e-01	1.19520001e-01	4.39453149e-03	1.23304004e+00	1.72195706e+05	3.00000000e+02	1.95559867e+03	8.26844035e+06	1.70116904e+00	1.79544195e-05	1.76059335e-02	2.54908299e-11	1.35334621e-01
4.91336287e-01	1.19520001e-01	3.80859396e-03	1.09156194e+00	1.55149830e+05	3.00000000e+02	1.92293223e+03	8.18209945e+06	1.58709853e+00	1.79553004e-05	2.43799304e-02	4.73307940e-11	1.73009173e-01
4.90133480e-01	1.19520001e-01	3.80859396e-03	1.10031562e+00	1.57213900e+05	3.00000000e+02	1.91142442e+03	8.32723790e+06	1.58886295e+00	1.79531704e-05	2.46098990e-02	5.25340844e-11	1.74423357e-01
4.88933340e-01	1.19520001e-01	3.80859396e-03	1.11454860e+00	1.59965962e+05	3.00000000e+02	1.90214774e+03	8.47781313e+06	1.59536360e+00	1.79515658e-05	2.45883059e-02	5.70566931e-11	1.74606619e-01
4.87735883e-01	1.19520001e-01	3.80859396e-03	1.13429056e+00	1.63411679e+05	3.00000000e+02	1.89216186e+03	8.62978331e+06	1.60529532e+00	1.79505080e-05	2.43345817e-02	6.03227550e-11	1.73641879e-01
4.86541078e-01	1.19520001e-01	3.80859396e-03	1.15918415e+00	1.67464479e+05	3.00000000e+02	1.87986375e+03	8.76914032e+06	1.61759670e+00	1.79497968e-05	2.38792102e-02	6.18447464e-11	1.71622178e-01
4.85348895e-01	1.19520001e-01	3.80859396e-03	1.18791258e+00	1.71940027e+05	3.00000000e+02	1.86534685e+03	8.89408279e+06	1.63118569e+00	1.79497756e-05	2.32479492e-02	6.11613995e-11	1.68579295e-01
4.91336287e-01	1.19520001e-01	3.22265644e-03	1.00913368e+00	1.52393141e+05	3.00000000e+02	1.83829856e+03	8.96987972e+06	1.49641406e+00	1.79028008e-05	3.34015590e-02	1.12665087e-10	2.08668343e-01
4.90133479e-01	1.19520001e-01	3.22265643e-03	1.01968655e+00	1.54973398e+05	3.00000000e+02	1.82555522e+03	9.15235227e+06	1.49933025e+00	1.78987999e-05	3.37053337e-02	1.27574825e-10	2.09716567e-01
4.88933340e-01	1.19520001e-01	3.22265644e-03	1.03666290e+00	1.58328415e+05	3.00000000e+02	1.81238640e+03	9.34032841e+06	1.50636255e+00	1.78980224e-05	3.36823825e-02	1.41733578e-10	2.09824047e-01
4.87735882e-01	1.19520001e-01	3.22265644e-03	1.05940244e+00	1.62346229e+05	3.00000000e+02	1.79583987e+03	9.52424240e+06	1.51566710e+00	1.78999101e-05	3.33670797e-02	1.53797468e-10	2.09122667e-01
4.86541078e-01	1.19520001e-01	3.22265643e-03	1.08697332e+00	1.66887042e+05	3.00000000e+02	1.77458271e+03	9.69410472e+06	1.52587358e+00	1.79031478e-05	3.27965209e-02	1.62116751e-10	2.07710173e-01
4.85348895e-01	1.19520001e-01	3.22265643e-03	1.11922405e+00	1.71863496e+05	3.00000000e+02	1.74740357e+03	9.83551229e+06	1.53601516e+00	1.79081206e-05	3.19907438e-02	1.64814931e-10	2.05524155e-01
4.91336287e-01	1.19520001e-01	2.63671891e-03	9.10793366e-01	1.50453499e+05	3.00000000e+02	1.73979887e+03	9.69628009e+06	1.39663485e+00	1.77282946e-05	4.67226694e-02	2.69919565e-10	2.33499366e-01
4.90133480e-01	1.19520001e-01	2.63671891e-03	9.22484689e-01	1.53550767e+05	3.00000000e+02	1.72625513e+03	9.91754401e+06	1.40054082e+00	1.77225695e-05	4.71198188e-02	3.09742040e-10	2.33819597e-01
4.88933340e-01	1.19520001e-01	2.63671891e-03	9.40432649e-01	1.57435329e+05	3.00000000e+02	1.71070338e+03	1.01619175e+07	1.40771449e+00	1.77225826e-05	4.71180961e-02	3.51485623e-10	2.33819244e-01
4.87735883e-01	1.19520001e-01	2.63671891e-03	9.63605229e-01	1.61936633e+05	3.00000000e+02	1.69071477e+03	1.04166709e+07	1.41620442e+00	1.77275691e-05	4.67668120e-02	3.93527664e-10	2.33542864e-01
4.86541078e-01	1.19520001e-01	2.63671891e-03	9.90806826e-01	1.66834160e+05	3.00000000e+02	1.66539850e+03	1.06682036e+07	1.42452402e+00	1.77367559e-05	4.61151862e-02	4.33618615e-10	2.33014036e-01
4.85348895e-01	1.19520001e-01	2.63671891e-03	1.02265919e+00	1.72191572e+05	3.00000000e+02	1.63106506e+03	1.08956700e+07	1.43129827e+00	1.77484872e-05	4.51938329e-02	4.66263953e-10	2.32233060e-01
4.92541760e-01	1.19520001e-01	2.05078133e-03	7.97040711e-01	1.46071387e+05	3.00000000e+02	1.58113432e+03	9.26222136e+06	1.26814468e+00	1.74119020e-05	6.54208090e-02	4.52882802e-10	2.40450035e-01
4.91336287e-01	1.19520001e-01	2.05078133e-03	8.03159664e-01	1.48764422e+05	3.00000000e+02	1.57393967e+03	9.47086833e+06	1.27139349e+00	1.73942371e-05	6.64407927e-02	5.23153313e-10	2.40459294e-01
4.90133479e-01	1.19520001e-01	2.05078133e-03	8.15418597e-01	1.52287885e+05	3.00000000e+02	1.56408539e+03	9.72665606e+06	1.27768566e+00	1.73854885e-05	6.69326997e-02	6.06534171e-10	2.40456294e-01
4.88933340e-01	1.19520001e-01	2.05078133e-03	8.33185330e-01	1.56609645e+05	3.00000000e+02	1.55177463e+03	1.00288456e+07	1.28649704e+00	1.73846809e-05	6.69763757e-02	7.05566018e-10	2.40456056e-01
4.87735882e-01	1.19520001e-01	2.05078133e-03	8.55685835e-01	1.61580700e+05	3.00000000e+02	1.53420121e+03	1.03610442e+07	1.29586816e+00	1.73911338e-05	6.66205211e-02	8.22359933e-10	2.40460329e-01
4.86541078e-01	1.19520001e-01	2.05078133e-03	8.80703439e-01	1.66770308e+05	3.00000000e+02	1.51073068e+03	1.07062506e+07	1.30370482e+00	1.74028142e-05	6.59328495e-02	9.54093356e-10	2.40464751e-01
4.85348895e-01	1.19520001e-01	2.05078133e-03	9.09599997e-01	1.72434385e+05	3.00000000e+02	1.47699684e+03	1.10424815e+07	1.30886035e+00	1.74185532e-05	6.50022951e-02	1.09672311e-09	2.40473128e-01
4.92541760e-01	1.19520001e-01	1.46484381e-03	6.86886661e-01	1.44705653e+05	3.00000000e+02	1.33827118e+03	8.57477513e+06	1.11723034e+00	1.68796046e-05	9.21926553e-02	5.59813509e-10	2.37815712e-01
4.91336286e-01	1.19520001e-01	1.46484381e-03	6.93255760e-01	1.47629487e+05	3.00000000e+02	1.34063654e+03	8.70345554e+06	1.12444680e+00	1.68637340e-05	9.34142295e-02	6.43862396e-10	2.37626316e-01
4.90133480e-01	1.19520001e-01	1.46484381e-03	7.05154655e-01	1.51358235e+05	3.00000000e+02	1.33726257e+03	8.85647524e+06	1.13318126e+00	1.68554959e-05	9.41454737e-02	7.57154048e-10	2.37483962e-01
4.88933340e-01	1.19520001e-01	1.46484381e-03	7.21233575e-01	1.55835405e+05	3.00000000e+02	1.32857773e+03	9.08875370e+06	1.14252635e+00	1.68521615e-05	9.44757841e-02	9.01956329e-10	2.37406804e-01
4.87735882e-01	1.19520001e-01	1.46484381e-03	7.41337872e-01	1.61065738e+05	3.00000000e+02	1.31213194e+03	9.41037536e+06	1.15106242e+00	1.68534322e-05	9.44069205e-02	1.08618663e-09	2.37407875e-01
4.86541078e-01	1.19520001e-01	1.46484381e-03	7.62790749e-01	1.66448113e+05	3.00000000e+02	1.28942085e+03	9.80292664e+06	1.15705856e+00	1.68591276e-05	9.39701748e-02	1.31273997e-09	2.37475280e-01
4.85348896e-01	1.19520001e-01	1.46484381e-03	7.86376213e-01	1.72257869e+05	3.00000000e+02	1.25714974e+03	1.02266523e+07	1.15947221e+00	1.68670343e-05	9.33754758e-02	1.59457872e-09	2.37558807e-01
4.92541761e-01	1.19520001e-01	8.78906287e-04	5.92231892e-01	1.43792864e+05	3.00000000e+02	1.11443321e+03	7.44119296e+06	9.76930644e-01	1.63568462e-05	1.21685518e-01	3.26890123e-10	2.30456435e-01
4.91336287e-01	1.19520001e-01	8.78906287e-04	5.97910055e-01	1.46804995e+05	3.00000000e+02	1.12749960e+03	7.66212098e+06	9.88375302e-01	1.63397206e-05	1.22831404e-01	3.76259959e-10	2.30195505e-01
4.90133479e-01	1.19520001e-01	8.78906286e-04	6.07528288e-01	1.50732288e+05	3.00000000e+02	1.13337190e+03	7.89134443e+06	9.99411598e-01	1.63311013e-05	1.23717860e-01	4.52320104e-10	2.29881511e-01
4.88933340e-01	1.19520001e-01	8.78906287e-04	6.20392444e-01	1.55499258e+05	3.00000000e+02	1.13777522e+03	8.12538987e+06	1.01196077e+00	1.63300755e-05	1.24449868e-01	5.67041271e-10	2.29502846e-01
4.87735882e-01	1.19520001e-01	8.78906286e-04	6.37031677e-01	1.61252539e+05	3.00000000e+02	1.13099108e+03	8.39883327e+06	1.02210970e+00	1.63343923e-05	1.25040242e-01	7.35045296e-10	2.29072503e-01
4.86541078e-01	1.19520001e-01	8.78906286e-04	6.52945087e-01	1.66474989e+05	3.00000000e+02	1.10980894e+03	8.56422000e+06	1.02460401e+00	1.63416826e-05	1.25522156e-01	9.33643925e-10	2.28619491e-01
4.85348896e-01	1.19520001e-01	8.78906287e-04	6.71859263e-01	1.72120942e+05	3.00000000e+02	1.08054492e+03	8.65730963e+06	1.02510541e+00	1.63486700e-05	1.25881806e-01	1.17852681e-09	2.28233251e-01
4.92541761e-01	1.19520001e-01	2.92968761e-04	5.40495468e-01	1.43885207e+05	3.00000000e+02	1.08343275e+03	5.99023759e+06	9.37325796e-01	1.60581985e-05	1.42670827e-01	1.14667469e-10	2.23222668e-01
4.91336287e-01	1.19520001e-01	2.92968761e-04	5.46662180e-01	1.46758026e+05	3.00000000e+02	1.09315746e+03	6.12487873e+06	9.48219894e-01	1.60354886e-05	1.43882572e-01	1.29463091e-10	2.22109033e-01
4.90133479e-01	1.19520001e-01	2.92968761e-04	5.57007960e-01	1.50667296e+05	3.00000000e+02	1.09108447e+03	6.13747503e+06	9.57027065e-01	1.60223440e-05	1.45091712e-01	1.52076166e-10	2.20766216e-01
4.88933340e-01	1.19520001e-01	2.92968761e-04	5.69261348e-01	1.55371311e+05	3.00000000e+02	1.08266996e+03	6.27492239e+06	9.65027643e-01	1.60012726e-05	1.46345577e-01	1.82252221e-10	2.19050685e-01
4.87735883e-01	1.19520001e-01	2.92968761e-04	5.83933527e-01	1.60871694e+05	3.00000000e+02	1.06649691e+03	6.41613141e+06	9.71407372e-01	1.59790331e-05	1.47656376e-01	2.24266708e-10	2.16907540e-01
4.86541078e-01	1.19520001e-01	2.92968761e-04	5.97757616e-01	1.66294902e+05	3.00000000e+02	1.04728796e+03	6.56850163e+06	9.75467837e-01	1.59541270e-05	1.49048421e-01	2.80454797e-10	2.14251598e-01
4.85348896e-01	1.19520001e-01	2.92968761e-04	6.12719830e-01	1.72161487e+05	3.00000000e+02	1.02351846e+03	6.72269880e+06	9.77987757e-01	1.59270658e-05	1.50498189e-01	3.54103922e-10	2.11048155e-01
3.84001315e-01	1.19520001e-01	6.09375024e-03	1.21710922e+00	1.20051224e+05	3.00000000e+02	8.78395906e+02	1.97154842e+06	1.11684931e+00	1.82098234e-05	3.65458619e-69	-1.84933658e-86	-1.42247138e-64
3.84001314e-01	1.19520001e-01	5.15625020e-03	1.21710931e+00	1.20051253e+05	3.00000000e+02	8.78397609e+02	1.97155119e+06	1.11685043e+00	1.82098234e-05	-8.32483123e-69	4.28965739e-87	-3.06462384e-66
3.85455906e-01	1.19520001e-01	4.21875017e-03	1.27902178e+00	1.25788252e+05	3.00000000e+02	7.84256143e+02	1.92463539e+06	1.08181397e+00	1.82098234e-05	-7.15347960e-66	1.21684343e-83	-7.26129798e-65
3.88199389e-01	1.19520001e-01	1.40625005e-03	1.52510798e+00	1.51479689e+05	3.00000000e+02	6.89786723e+02	2.08314279e+06	1.10787909e+00	1.82098234e-05	2.55251643e-63	-2.10204812e-79	-1.42721876e-61
3.88199389e-01	1.19520001e-01	4.68750019e-04	1.52510934e+00	1.51480005e+05	3.00000000e+02	6.89785095e+02	2.08316210e+06	1.10787827e+00	1.82098234e-05	5.11604130e-63	-2.61736696e-79	-7.96607149e-62
3.96271244e-01	1.19520001e-01	8.90625036e-03	1.47453428e+00	1.49482197e+05	3.00000000e+02	1.08336567e+03	2.41648167e+06	1.36521051e+00	1.82098234e-05	1.18138279e-41	-9.24815624e-57	-1.18675033e-37
3.95249277e-01	1.19520001e-01	8.90625035e-03	1.52400660e+00	1.55493098e+05	3.00000000e+02	1.09511469e+03	2.52269781e+06	1.39542943e+00	1.82098234e-05	3.64800414e-44	-2.32234218e-59	-3.67584084e-40
3.94186422e-01	1.19520001e-01	8.90625036e-03	1.57560679e+00	1.61672827e+05	3.00000000e+02	1.08926489e+03	2.61715592e+06	1.41506153e+00	1.82098234e-05	1.09524120e-46	-5.23299322e-62	-1.12154398e-42
3.93081054e-01	1.19520001e-01	8.90625035e-03	1.62369601e+00	1.67227944e+05	3.00000000e+02	1.05671605e+03	2.67935231e+06	1.41486878e+00	1.82098234e-05	3.11021796e-49	-1.01952208e-64	-3.26701202e-45
3.91931475e-01	1.19520001e-01	8.90625036e-03	1.65793618e+00	1.70784116e+05	3.00000000e+02	9.90530150e+02	2.68226756e+06	1.38421135e+00	1.82098234e-05	8.08274101e-52	-1.58278749e-67	-8.78775402e-48
3.90735894e-01	1.19520001e-01	8.90625035e-03	1.66164062e+00	1.70339780e+05	3.00000000e+02	8.95349537e+02	2.60139667e+06	1.31749662e+00	1.82098234e-05	1.84712787e-54	-1.81375043e-70	-2.09466487e-50
3.89492497e-01	1.19520001e-01	8.90625035e-03	1.61230439e+00	1.63997953e+05	3.00000000e+02	8.06174743e+02	2.47185819e+06	1.23146696e+00	1.82098234e-05	3.61923000e-57	-1.54598730e-73	-4.29127236e-53
3.88199389e-01	1.19520001e-01	8.90625035e-03	1.52510934e+00	1.51480005e+05	3.00000000e+02	6.89785082e+02	2.08316207e+06	1.10787826e+00	1.82098234e-05	5.52346011e-60	-9.80632633e-77	-6.88236192e-56
3.86854545e-01	1.19520001e-01	8.90625036e-03	1.38748819e+00	1.36980853e+05	3.00000000e+02	7.14446933e+02	1.98605910e+06	1.07543530e+00	1.82098234e-05	7.09426871e-63	-4.31827802e-80	-8.96336842e-59
3.96271244e-01	1.19520001e-01	7.96875032e-03	1.47452670e+00	1.49482250e+05	3.00000000e+02	1.08340394e+03	2.41657236e+06	1.36523111e+00	1.82098234e-05	1.39378071e-40	-1.36506321e-55	-1.43667669e-36
3.95249277e-01	1.19520001e-01	7.96875032e-03	1.52400318e+00	1.55493525e+05	3.00000000e+02	1.09514245e+03	2.52278073e+06	1.39544555e+00	1.82098234e-05	4.27425700e-43	-3.38311247e-58	-4.42460833e-39
3.94186422e-01	1.19520001e-01	7.96875032e-03	1.57560717e+00	1.61673463e+05	3.00000000e+02	1.08927787e+03	2.61721750e+06	1.41507014e+00	1.82098234e-05	1.25587778e-45	-7.47444686e-61	-1.32011053e-41
3.93081054e-01	1.19520001e-01	7.96875032e-03	1.62369912e+00	1.67228613e+05	3.00000000e+02	1.05671434e+03	2.67938717e+06	1.41486899e+00	1.82098234e-05	3.47860332e-48	-1.42663203e-63	-3.74779757e-44
3.91931474e-01	1.19520001e-01	7.96875032e-03	1.65794085e+00	1.70784627e+05	3.00000000e+02	9.90516317e+02	2.68227045e+06	1.38420363e+00	1.82098234e-05	8.81595955e-51	-2.17176927e-66	-9.82620188e-47
3.90735895e-01	1.19520001e-01	7.96875032e-03	1.66164512e+00	1.70339997e+05	3.00000000e+02	8.95331602e+02	2.60137278e+06	1.31748521e+00	1.82098234e-05	1.96620880e-53	-2.44353079e-69	-2.28571190e-49
3.89492497e-01	1.19520001e-01	7.96875032e-03	1.61230658e+00	1.63997844e+05	3.00000000e+02	8.06163444e+02	2.47182479e+06	1.23145916e+00	1.82098234e-05	3.76484371e-56	-2.04757168e-72	-4.57692146e-52
3.88199389e-01	1.19520001e-01	7.96875032e-03	1.52510799e+00	1.51479689e+05	3.00000000e+02	6.89786686e+02	2.08314272e+06	1.10787906e+00	1.82098234e-05	5.62368213e-59	-1.27831829e-75	-7.18812388e-55
3.86854544e-01	1.19520001e-01	7.96875032e-03	1.38748588e+00	1.36980607e+05	3.00000000e+02	7.14457546e+02	1.98605701e+06	1.07544239e+00	1.82098234e-05	7.08361431e-62	-5.54386847e-79	-9.17820773e-58
3.96271244e-01	1.19520001e-01	7.03125028e-03	1.47452220e+00	1.49482533e+05	3.00000000e+02	1.08344732e+03	2.41665377e+06	1.36525636e+00	1.82098234e-05	4.64316024e-40	-5.44698227e-55	-5.01239294e-36
3.95249278e-01	1.19520001e-01	7.03125028e-03	1.52400198e+00	1.55493923e+05	3.00000000e+02	1.09516238e+03	2.52283621e+06	1.39545770e+00	1.82098234e-05	1.44303090e-42	-1.35950528e-57	-1.56784730e-38
3.94186422e-01	1.19520001e-01	7.03125028e-03	1.57561039e+00	1.61674229e+05	3.00000000e+02	1.08928864e+03	2.61726242e+06	1.41507858e+00	1.82098234e-05	4.22704670e-45	-2.99494947e-60	-4.66367799e-41
3.93081054e-01	1.19520001e-01	7.03125028e-03	1.62370502e+00	1.67229483e+05	3.00000000e+02	1.05671358e+03	2.67941347e+06	1.41487106e+00	1.82098234e-05	1.16172508e-47	-5.68276002e-63	-1.31348056e-43
3.91931475e-01	1.19520001e-01	7.03125028e-03	1.65794791e+00	1.70785371e+05	3.00000000e+02	9.90504698e+02	2.68227221e+06	1.38419846e+00	1.82098234e-05	2.91624630e-50	-8.59354171e-66	-3.41218779e-46
3.90735895e-01	1.19520001e-01	7.03125028e-03	1.66165108e+00	1.70340390e+05	3.00000000e+02	8.95314126e+02	2.60135145e+06	1.31747471e+00	1.82098234e-05	6.43908043e-53	-9.60510390e-69	-7.86419936e-49
3.89492497e-01	1.19520001e-01	7.03125028e-03	1.61230889e+00	1.63997751e+05	3.00000000e+02	8.06148630e+02	2.47179161e+06	1.23144873e+00	1.82098234e-05	1.22066356e-55	-7.99768614e-72	-1.56081974e-51
3.88199389e-01	1.19520001e-01	7.03125028e-03	1.52510561e+00	1.51479241e+05	3.00000000e+02	6.89782755e+02	2.08312029e+06	1.10787504e+00	1.82098234e-05	1.80560993e-58	-4.96320553e-75	-2.43109781e-54
3.86854545e-01	1.19520001e-01	7.03125028e-03	1.38748239e+00	1.36980219e+05	3.00000000e+02	7.14463141e+02	1.98605188e+06	1.07544525e+00	1.82098234e-05	2.25671666e-61	-2.14010193e-78	-3.07976647e-57
3.96271244e-01	1.19520001e-01	6.09375024e-03	1.47452353e+00	1.49483165e+05	3.00000000e+02	1.08346508e+03	2.41670858e+06	1.36526817e+00	1.82098234e-05	-4.16062271e-42	-3.88179818e-57	-6.19043797e-38
3.95249278e-01	1.19520001e-01	6.09375024e-03	1.52400263e+00	1.55494321e+05	3.00000000e+02	1.09517624e+03	2.52287160e+06	1.39546682e+00	1.82098234e-05	-7.52314524e-45	-1.25933024e-59	-2.41665532e-40
3.94186422e-01	1.19520001e-01	6.09375024e-03	1.57561462e+00	1.61674995e+05	3.00000000e+02	1.08929823e+03	2.61729675e+06	1.41508671e+00	1.82098234e-05	-9.07077932e-48	-3.37513600e-62	-8.61351054e-43
3.93081054e-01	1.19520001e-01	6.09375024e-03	1.62371190e+00	1.67230369e+05	3.00000000e+02	1.05671254e+03	2.67943121e+06	1.41487336e+00	1.82098234e-05	5.54799376e-51	-7.47769588e-65	-2.82225075e-45
3.91931475e-01	1.19520001e-01	6.09375024e-03	1.65795557e+00	1.70786143e+05	3.00000000e+02	9.90494093e+02	2.68227048e+06	1.38419425e+00	1.82098234e-05	7.88195970e-53	-1.28293718e-67	-8.33587003e-48
3.90735894e-01	1.19520001e-01	6.09375024e-03	1.66165716e+00	1.70340806e+05	3.00000000e+02	8.95297803e+02	2.60133115e+06	1.31746511e+00	1.82098234e-05	2.93741386e-55	-1.59358749e-70	-2.14475780e-50
3.89492497e-01	1.19520001e-01	6.09375024e-03	1.61231089e+00	1.63997651e+05	3.00000000e+02	8.06133555e+02	2.47176106e+06	1.23143798e+00	1.82098234e-05	7.52275575e-58	-1.45257580e-73	-4.68089578e-53
3.88199389e-01	1.19520001e-01	6.09375024e-03	1.52510279e+00	1.51478766e+05	3.00000000e+02	6.89777077e+02	2.08309952e+06	1.10786945e+00	1.82098234e-05	1.33578987e-60	-9.75601113e-77	-7.91044717e-56
3.86854544e-01	1.19520001e-01	6.09375024e-03	1.38747865e+00	1.36979807e+05	3.00000000e+02	7.14466267e+02	1.98604688e+06	1.07544615e+00	1.82098234e-05	2.12860828e-63	-4.52192399e-80	-1.07755017e-58
3.85455907e-01	1.19520001e-01	6.09375024e-03	1.27902296e+00	1.25788348e+05	3.00000000e+02	7.84253141e+02	1.92463301e+06	1.08181240e+00	1.82098234e-05	2.96659990e-66	-2.80615112e-83	-1.29072044e-61
3.96271244e-01	1.19520001e-01	5.15625020e-03	1.47452882e+00	1.49484041e+05	3.00000000e+02	1.08346793e+03	2.41674608e+06	1.36527241e+00	1.82098234e-05	-1.27939385e-41	3.48866567e-57	-4.94907277e-40
3.95249277e-01	1.19520001e-01	5.15625020e-03	1.52400325e+00	1.55494515e+05	3.00000000e+02	1.09518224e+03	2.52288556e+06	1.39547093e+00	1.82098234e-05	-3.85339082e-44	8.34867274e-60	-2.27911492e-42
3.94186422e-01	1.19520001e-01	5.15625020e-03	1.57561718e+00	1.61675457e+05	3.00000000e+02	1.08930491e+03	2.61731737e+06	1.41509219e+00	1.82098234e-05	-1.12130132e-46	1.79190416e-62	-9.39350096e-45
3.93081054e-01	1.19520001e-01	5.15625020e-03	1.62371631e+00	1.67230918e+05	3.00000000e+02	1.05671209e+03	2.67944070e+06	1.41487498e+00	1.82098234e-05	-3.11850647e-49	3.34159135e-65	-3.49451587e-47
3.91931474e-01	1.19520001e-01	5.15625020e-03	1.65796044e+00	1.70786629e+05	3.00000000e+02	9.90487838e+02	2.68226892e+06	1.38419191e+00	1.82098234e-05	-8.04286039e-52	4.99128139e-68	-1.15310324e-49
3.90735895e-01	1.19520001e-01	5.15625020e-03	1.66166099e+00	1.70341076e+05	3.00000000e+02	8.95288043e+02	2.60131914e+06	1.31745945e+00	1.82098234e-05	-1.84568308e-54	5.52665283e-71	-3.26820407e-52
3.89492497e-01	1.19520001e-01	5.15625020e-03	1.61231209e+00	1.63997595e+05	3.00000000e+02	8.06124273e+02	2.47174301e+06	1.23143135e+00	1.82098234e-05	-3.65322494e-57	4.56667851e-74	-7.76244304e-55
3.88199389e-01	1.19520001e-01	5.15625020e-03	1.52510097e+00	1.51478470e+05	3.00000000e+02	6.89773245e+02	2.08308723e+06	1.10786572e+00	1.82098234e-05	-5.68093964e-60	2.81576106e-77	-1.41197587e-57