VARIABLES ="X" "Y" "Z" "rho" "press" "temp" "tau_wall" "qdot" "yplus" "muLam" "ZMean" "ZVar" "CMean" 
Zone T ="wall" I = 8632 , F = point
4.07117648e-01	1.29320011e-01	1.04671078e-03	1.04947575e+00	1.08271910e+05	3.00000000e+02	1.83271848e+03	3.66633156e+06	1.13871030e+00	1.80817820e-05	1.36254946e-73	5.13480013e-82	1.91678407e-73
4.07339645e-01	1.29320011e-01	1.06051355e-03	1.04837734e+00	1.08133582e+05	3.00000000e+02	1.82953635e+03	3.66096629e+06	1.13716141e+00	1.80817820e-05	1.63289997e-73	5.84608035e-82	2.29710502e-73
4.07394942e-01	1.29320011e-01	1.05175195e-03	1.04833027e+00	1.08093152e+05	3.00000000e+02	1.82645015e+03	3.65337494e+06	1.13621433e+00	1.80817820e-05	1.56632893e-73	5.54853766e-82	2.20345227e-73
4.07449723e-01	1.29320011e-01	1.04011004e-03	1.04802276e+00	1.08063178e+05	3.00000000e+02	1.82956089e+03	3.65412348e+06	1.13689509e+00	1.80817820e-05	1.47310994e-73	5.17537450e-82	2.07231176e-73
4.07503823e-01	1.29320011e-01	1.02561558e-03	1.04759850e+00	1.08036238e+05	3.00000000e+02	1.82997873e+03	3.65740907e+06	1.13687108e+00	1.80817820e-05	1.35860973e-73	4.73894587e-82	1.91123352e-73
4.07172545e-01	1.29320011e-01	1.04958748e-03	1.04951679e+00	1.08238874e+05	3.00000000e+02	1.82478366e+03	3.65821206e+06	1.13635893e+00	1.80817820e-05	1.41850716e-73	5.26672131e-82	1.99550340e-73
4.07227509e-01	1.29320011e-01	1.04958665e-03	1.04948218e+00	1.08189482e+05	3.00000000e+02	1.82301865e+03	3.64860216e+06	1.13579054e+00	1.80817820e-05	1.44386603e-73	5.29378286e-82	2.03117655e-73
4.07282393e-01	1.29320011e-01	1.04671158e-03	1.04877251e+00	1.08158309e+05	3.00000000e+02	1.82985660e+03	3.65771622e+06	1.13743961e+00	1.80817820e-05	1.44024860e-73	5.23165890e-82	2.02608622e-73
4.07337065e-01	1.29320011e-01	1.04096437e-03	1.04841306e+00	1.08134291e+05	3.00000000e+02	1.82880799e+03	3.66032161e+06	1.13696058e+00	1.80817820e-05	1.40826970e-73	5.06114867e-82	1.98109744e-73
4.07391361e-01	1.29320011e-01	1.03236625e-03	1.04832344e+00	1.08092945e+05	3.00000000e+02	1.82877614e+03	3.65335408e+06	1.13697285e+00	1.80817820e-05	1.34968291e-73	4.80913594e-82	1.89867720e-73
4.07445132e-01	1.29320011e-01	1.02093720e-03	1.04774017e+00	1.08067611e+05	3.00000000e+02	1.83347165e+03	3.66101603e+06	1.13800587e+00	1.80817820e-05	1.26817413e-73	4.48508965e-82	1.78401089e-73
4.07498227e-01	1.29320011e-01	1.00671041e-03	1.04761461e+00	1.08043318e+05	3.00000000e+02	1.82796231e+03	3.65820429e+06	1.13635991e+00	1.80817820e-05	1.16903832e-73	4.10189703e-82	1.64454751e-73
4.07550493e-01	1.29320011e-01	9.89724060e-04	1.04778517e+00	1.07999750e+05	3.00000000e+02	1.82320829e+03	3.64568675e+06	1.13487143e+00	1.80817820e-05	1.05840638e-73	3.68670572e-82	1.48891198e-73
4.07070588e-01	1.29320011e-01	9.83149474e-04	1.04982083e+00	1.08293500e+05	3.00000000e+02	1.83071614e+03	3.66327049e+06	1.13831353e+00	1.80817820e-05	8.19792807e-74	3.16276181e-82	1.15324384e-73
4.07068046e-01	1.29320011e-01	1.00242216e-03	1.04985017e+00	1.08294277e+05	3.00000000e+02	1.83024598e+03	3.66279581e+06	1.13818421e+00	1.80817820e-05	9.51828485e-74	3.66025905e-82	1.33898880e-73
4.07119168e-01	1.29320011e-01	1.02733250e-03	1.04961963e+00	1.08267560e+05	3.00000000e+02	1.83011308e+03	3.66217881e+06	1.13801827e+00	1.80817820e-05	1.17654747e-73	4.44712557e-82	1.65511864e-73
4.07122214e-01	1.29320011e-01	9.88576858e-04	1.04960644e+00	1.08263164e+05	3.00000000e+02	1.82989575e+03	3.66154567e+06	1.13794252e+00	1.80817820e-05	8.73201372e-74	3.32260349e-82	1.22837687e-73
4.07120695e-01	1.29320011e-01	1.00795336e-03	1.04961998e+00	1.08265293e+05	3.00000000e+02	1.82987117e+03	3.66169325e+06	1.13794405e+00	1.80817820e-05	1.01480219e-73	3.84844719e-82	1.42757799e-73
4.07174072e-01	1.29320011e-01	9.91292022e-04	1.04935703e+00	1.08232333e+05	3.00000000e+02	1.82964169e+03	3.66047101e+06	1.13772948e+00	1.80817820e-05	9.07756311e-74	3.41131085e-82	1.27698697e-73
4.07173565e-01	1.29320011e-01	1.01072533e-03	1.04936657e+00	1.08233487e+05	3.00000000e+02	1.82970180e+03	3.66050450e+06	1.13775401e+00	1.80817820e-05	1.05578509e-73	3.95255011e-82	1.48523086e-73
4.07173051e-01	1.29320011e-01	1.03015593e-03	1.04938192e+00	1.08233958e+05	3.00000000e+02	1.82967356e+03	3.66028066e+06	1.13775064e+00	1.80817820e-05	1.22459171e-73	4.56755952e-82	1.72270533e-73
4.07225982e-01	1.29320011e-01	9.91292948e-04	1.04907165e+00	1.08197656e+05	3.00000000e+02	1.82946079e+03	3.65937107e+06	1.13751852e+00	1.80817820e-05	9.20507303e-74	3.42314245e-82	1.29492370e-73
4.07226496e-01	1.29320011e-01	1.01072535e-03	1.04905837e+00	1.08196234e+05	3.00000000e+02	1.82952654e+03	3.65935805e+06	1.13753244e+00	1.80817820e-05	1.07400269e-73	3.97371928e-82	1.51085790e-73
4.07227010e-01	1.29320011e-01	1.03015595e-03	1.04904938e+00	1.08194208e+05	3.00000000e+02	1.82944222e+03	3.65913694e+06	1.13749844e+00	1.80817820e-05	1.24637619e-73	4.59322778e-82	1.75335013e-73
4.07277817e-01	1.29320011e-01	9.88575110e-04	1.04880283e+00	1.08164581e+05	3.00000000e+02	1.82907449e+03	3.65825195e+06	1.13725153e+00	1.80817820e-05	9.12055992e-74	3.36313186e-82	1.28303342e-73
4.07279345e-01	1.29320011e-01	1.00795427e-03	1.04878785e+00	1.08162865e+05	3.00000000e+02	1.82908493e+03	3.65821025e+06	1.13724849e+00	1.80817820e-05	1.06952731e-73	3.91631600e-82	1.50456093e-73
4.07280880e-01	1.29320011e-01	1.02733248e-03	1.04878112e+00	1.08161372e+05	3.00000000e+02	1.82898194e+03	3.65804536e+06	1.13721201e+00	1.80817820e-05	1.24299311e-73	4.53035884e-82	1.74858968e-73
4.07329452e-01	1.29320011e-01	9.83150273e-04	1.04856375e+00	1.08134505e+05	3.00000000e+02	1.82868040e+03	3.65711554e+06	1.13699911e+00	1.80817820e-05	8.86351586e-74	3.24464248e-82	1.24687189e-73
4.07331984e-01	1.29320011e-01	1.00242056e-03	1.04855328e+00	1.08133671e+05	3.00000000e+02	1.82868458e+03	3.65716415e+06	1.13699568e+00	1.80817820e-05	1.04271846e-73	3.78493301e-82	1.46684569e-73
4.07334534e-01	1.29320011e-01	1.02169402e-03	1.04852576e+00	1.08132196e+05	3.00000000e+02	1.82907010e+03	3.65744452e+06	1.13710236e+00	1.80817820e-05	1.21453723e-73	4.38368349e-82	1.70855729e-73
4.07380730e-01	1.29320011e-01	9.75028935e-04	1.04830941e+00	1.08103514e+05	3.00000000e+02	1.82834932e+03	3.65611447e+06	1.13675862e+00	1.80817820e-05	8.47375206e-74	3.08031623e-82	1.19203981e-73
4.07384274e-01	1.29320011e-01	9.94140235e-04	1.04829343e+00	1.08101024e+05	3.00000000e+02	1.82828650e+03	3.65594289e+06	1.13672884e+00	1.80817820e-05	9.96488151e-74	3.59103380e-82	1.40180881e-73
4.07387820e-01	1.29320011e-01	1.01325296e-03	1.04818117e+00	1.08097215e+05	3.00000000e+02	1.83112028e+03	3.65757855e+06	1.13754707e+00	1.80817820e-05	1.16276229e-73	4.16501000e-82	1.63572015e-73
4.07431518e-01	1.29320011e-01	9.64233502e-04	1.04809290e+00	1.08075731e+05	3.00000000e+02	1.82783640e+03	3.65496987e+06	1.13648147e+00	1.80817820e-05	7.98440478e-74	2.88108435e-82	1.12319885e-73
4.07436066e-01	1.29320011e-01	9.83135551e-04	1.04809273e+00	1.08074190e+05	3.00000000e+02	1.82743746e+03	3.65464811e+06	1.13635792e+00	1.80817820e-05	9.35421140e-74	3.34919715e-82	1.31590016e-73
4.07440602e-01	1.29320011e-01	1.00203611e-03	1.04791676e+00	1.08074369e+05	3.00000000e+02	1.82956082e+03	3.65877414e+06	1.13683627e+00	1.80817820e-05	1.09165841e-73	3.87809639e-82	1.53569161e-73
4.07481658e-01	1.29320011e-01	9.50797484e-04	1.04788254e+00	1.08048706e+05	3.00000000e+02	1.82747278e+03	3.65384878e+06	1.13625462e+00	1.80817820e-05	7.42142460e-74	2.65713269e-82	1.04399979e-73
4.07487186e-01	1.29320011e-01	9.69435099e-04	1.04794465e+00	1.08047892e+05	3.00000000e+02	1.82483447e+03	3.65232602e+06	1.13546988e+00	1.80817820e-05	8.64319987e-74	3.07403694e-82	1.21587603e-73
4.07492714e-01	1.29320011e-01	9.88072706e-04	1.04803050e+00	1.08045178e+05	3.00000000e+02	1.82298578e+03	3.64986010e+06	1.13495255e+00	1.80817820e-05	1.00653174e-73	3.55032664e-82	1.41593638e-73
4.07531023e-01	1.29320011e-01	9.34754530e-04	1.04761630e+00	1.08015269e+05	3.00000000e+02	1.82721898e+03	3.65259069e+06	1.13603157e+00	1.80817820e-05	6.80616025e-74	2.41764084e-82	9.57445968e-74
4.07537515e-01	1.29320011e-01	9.53077744e-04	1.04771360e+00	1.08006835e+05	3.00000000e+02	1.82565695e+03	3.64839653e+06	1.13569670e+00	1.80817820e-05	7.87320517e-74	2.78451088e-82	1.10755471e-73
4.07544012e-01	1.29320011e-01	9.71400863e-04	1.04783739e+00	1.08003755e+05	3.00000000e+02	1.82222025e+03	3.64539459e+06	1.13459302e+00	1.80817820e-05	9.13027079e-74	3.20281102e-82	1.28439553e-73
4.07124023e-01	1.29320011e-01	9.63623660e-04	1.04957742e+00	1.08261379e+05	3.00000000e+02	1.83015688e+03	3.66179396e+06	1.13800950e+00	1.80817820e-05	7.02812644e-74	2.70459340e-82	9.88677592e-74
4.07175372e-01	1.29320011e-01	9.35498612e-04	1.04932871e+00	1.08230175e+05	3.00000000e+02	1.82974883e+03	3.66063215e+06	1.13774711e+00	1.80817820e-05	5.83071617e-74	2.23419807e-82	8.20228572e-74
4.07174672e-01	1.29320011e-01	9.66242932e-04	1.04934368e+00	1.08231198e+05	3.00000000e+02	1.82970005e+03	3.66052217e+06	1.13774025e+00	1.80817820e-05	7.31455869e-74	2.78362612e-82	1.02897093e-73
4.07223996e-01	1.29320011e-01	9.04752750e-04	1.04908726e+00	1.08199741e+05	3.00000000e+02	1.82937228e+03	3.65947121e+06	1.13749934e+00	1.80817820e-05	4.72303132e-74	1.80415344e-82	6.64403075e-74
4.07224689e-01	1.29320011e-01	9.35498655e-04	1.04908200e+00	1.08199490e+05	3.00000000e+02	1.82945891e+03	3.65953293e+06	1.13752323e+00	1.80817820e-05	5.94375580e-74	2.25286626e-82	8.36129665e-74
4.07225382e-01	1.29320011e-01	9.66241529e-04	1.04908040e+00	1.08198709e+05	3.00000000e+02	1.82944077e+03	3.65940324e+06	1.13751690e+00	1.80817820e-05	7.46359622e-74	2.81141592e-82	1.04993591e-73
4.07269781e-01	1.29320011e-01	8.71818428e-04	1.04885879e+00	1.08171078e+05	3.00000000e+02	1.82900463e+03	3.65840012e+06	1.13726152e+00	1.80817820e-05	3.75481314e-74	1.43344042e-82	5.28198220e-74
4.07271860e-01	1.29320011e-01	9.02421572e-04	1.04884632e+00	1.08169917e+05	3.00000000e+02	1.82906564e+03	3.65842688e+06	1.13727356e+00	1.80817820e-05	4.74014402e-74	1.79227086e-82	6.66809767e-74
4.07273930e-01	1.29320011e-01	9.33020300e-04	1.04883190e+00	1.08168433e+05	3.00000000e+02	1.82914069e+03	3.65842745e+06	1.13728905e+00	1.80817820e-05	5.96141424e-74	2.23657383e-82	8.38612948e-74
4.07276010e-01	1.29320011e-01	9.63626572e-04	1.04881781e+00	1.08166446e+05	3.00000000e+02	1.82912616e+03	3.65831425e+06	1.13727724e+00	1.80817820e-05	7.48414807e-74	2.79071977e-82	1.05282599e-73
4.07316110e-01	1.29320011e-01	8.67443311e-04	1.04864457e+00	1.08144033e+05	3.00000000e+02	1.82863857e+03	3.65735989e+06	1.13703177e+00	1.80817820e-05	3.71719556e-74	1.40591338e-82	5.22905919e-74
4.07319551e-01	1.29320011e-01	8.97760137e-04	1.04861823e+00	1.08141283e+05	3.00000000e+02	1.82869868e+03	3.65735312e+06	1.13703612e+00	1.80817820e-05	4.68562935e-74	1.75489908e-82	6.59140310e-74
4.07322987e-01	1.29320011e-01	9.28078389e-04	1.04859436e+00	1.08138772e+05	3.00000000e+02	1.82875500e+03	3.65734325e+06	1.13704050e+00	1.80817820e-05	5.88478759e-74	2.18661943e-82	8.27832659e-74
4.07326435e-01	1.29320011e-01	9.58393876e-04	1.04857527e+00	1.08136353e+05	3.00000000e+02	1.82874392e+03	3.65724763e+06	1.13702709e+00	1.80817820e-05	7.37694291e-74	2.72322860e-82	1.03774373e-73
4.07362170e-01	1.29320011e-01	8.60898671e-04	1.04842785e+00	1.08117204e+05	3.00000000e+02	1.82838424e+03	3.65641914e+06	1.13683536e+00	1.80817820e-05	3.62796675e-74	1.36056040e-82	5.10353287e-74
4.07366954e-01	1.29320011e-01	8.90791134e-04	1.04839657e+00	1.08113552e+05	3.00000000e+02	1.82836148e+03	3.65632938e+06	1.13681136e+00	1.80817820e-05	4.56327246e-74	1.69415212e-82	6.41927210e-74
4.07371744e-01	1.29320011e-01	9.20679528e-04	1.04836682e+00	1.08110026e+05	3.00000000e+02	1.82836749e+03	3.65623387e+06	1.13679691e+00	1.80817820e-05	5.71910271e-74	2.10579281e-82	8.04524133e-74
4.07376525e-01	1.29320011e-01	9.50566868e-04	1.04833850e+00	1.08106575e+05	3.00000000e+02	1.82834569e+03	3.65612229e+06	1.13677490e+00	1.80817820e-05	7.15038038e-74	2.61379161e-82	1.00587083e-73
4.07407860e-01	1.29320011e-01	8.52206976e-04	1.04819705e+00	1.08088734e+05	3.00000000e+02	1.82813642e+03	3.65543856e+06	1.13663323e+00	1.80817820e-05	3.49173060e-74	1.29941871e-82	4.91187995e-74
4.07413958e-01	1.29320011e-01	8.81524233e-04	1.04817127e+00	1.08085248e+05	3.00000000e+02	1.82803199e+03	3.65526505e+06	1.13658674e+00	1.80817820e-05	4.37936604e-74	1.61283273e-82	6.16055727e-74
4.07420061e-01	1.29320011e-01	9.10846835e-04	1.04814181e+00	1.08081693e+05	3.00000000e+02	1.82797323e+03	3.65515697e+06	1.13655235e+00	1.80817820e-05	5.47301324e-74	1.99808270e-82	7.69904772e-74
4.07426157e-01	1.29320011e-01	9.40170654e-04	1.04811594e+00	1.08078315e+05	3.00000000e+02	1.82789755e+03	3.65500536e+06	1.13651551e+00	1.80817820e-05	6.81853339e-74	2.46916528e-82	9.59187084e-74
4.07453083e-01	1.29320011e-01	8.41386838e-04	1.04797816e+00	1.08061485e+05	3.00000000e+02	1.82779385e+03	3.65445609e+06	1.13640812e+00	1.80817820e-05	3.31434538e-74	1.22492409e-82	4.66234174e-74
4.07460450e-01	1.29320011e-01	8.69997586e-04	1.04794996e+00	1.08057599e+05	3.00000000e+02	1.82768361e+03	3.65424993e+06	1.13635876e+00	1.80817820e-05	4.14225707e-74	1.51444076e-82	5.82700098e-74
4.07467805e-01	1.29320011e-01	8.98610921e-04	1.04792393e+00	1.08054014e+05	3.00000000e+02	1.82758396e+03	3.65406244e+06	1.13631310e+00	1.80817820e-05	5.15839982e-74	1.86845553e-82	7.25645933e-74
4.07475162e-01	1.29320011e-01	9.27221092e-04	1.04790037e+00	1.08050936e+05	3.00000000e+02	1.82751936e+03	3.65392291e+06	1.13628132e+00	1.80817820e-05	6.39909704e-74	2.29696460e-82	9.00181831e-74
4.07506302e-01	1.29320011e-01	8.56241056e-04	1.04773486e+00	1.08030735e+05	3.00000000e+02	1.82736190e+03	3.65326669e+06	1.13614186e+00	1.80817820e-05	3.86173191e-74	1.40280968e-82	5.43237050e-74
4.07514870e-01	1.29320011e-01	8.84004352e-04	1.04769753e+00	1.08025895e+05	3.00000000e+02	1.82729946e+03	3.65305792e+06	1.13610242e+00	1.80817820e-05	4.78889524e-74	1.72240102e-82	6.73665453e-74
4.07523447e-01	1.29320011e-01	9.11768477e-04	1.04765609e+00	1.08020559e+05	3.00000000e+02	1.82727483e+03	3.65283407e+06	1.13607250e+00	1.80817820e-05	5.91211951e-74	2.10527222e-82	8.31675419e-74
4.07497731e-01	1.29320011e-01	8.28475779e-04	1.04777187e+00	1.08035568e+05	3.00000000e+02	1.82745996e+03	3.65348055e+06	1.13619235e+00	1.80817820e-05	3.10272779e-74	1.13984471e-82	4.36464848e-74
4.07579510e-01	1.29320011e-01	9.16149700e-04	1.04737181e+00	1.07984477e+05	3.00000000e+02	1.82677339e+03	3.65141308e+06	1.13576183e+00	1.80817820e-05	6.15703236e-74	2.17064359e-82	8.66128766e-74
4.07586935e-01	1.29320011e-01	9.34108276e-04	1.04717813e+00	1.07978336e+05	3.00000000e+02	1.82928213e+03	3.65430149e+06	1.13644191e+00	1.80817820e-05	7.07690911e-74	2.48762163e-82	9.95533894e-74
4.07594381e-01	1.29320011e-01	9.52066456e-04	1.04737106e+00	1.07972236e+05	3.00000000e+02	1.82804065e+03	3.64919897e+06	1.13604881e+00	1.80817820e-05	8.16260885e-74	2.85287055e-82	1.14826696e-73
4.07551420e-01	1.29320011e-01	8.40292847e-04	1.04751802e+00	1.08003808e+05	3.00000000e+02	1.82708312e+03	3.65230836e+06	1.13593716e+00	1.80817820e-05	3.54845054e-74	1.28195512e-82	4.99166191e-74
4.07561136e-01	1.29320011e-01	8.67069052e-04	1.04747011e+00	1.07997799e+05	3.00000000e+02	1.82701704e+03	3.65208101e+06	1.13589143e+00	1.80817820e-05	4.37919463e-74	1.56539927e-82	6.16030600e-74
4.07570866e-01	1.29320011e-01	8.93845365e-04	1.04741788e+00	1.07991115e+05	3.00000000e+02	1.82694196e+03	3.65180900e+06	1.13583948e+00	1.80817820e-05	5.37775003e-74	1.90161043e-82	7.56502397e-74
4.07595709e-01	1.29320011e-01	8.22202567e-04	1.04730650e+00	1.07977588e+05	3.00000000e+02	1.82678534e+03	3.65138237e+06	1.13572950e+00	1.80817820e-05	3.21311931e-74	1.15581197e-82	4.51993651e-74
4.07606493e-01	1.29320011e-01	8.47854093e-04	1.04725773e+00	1.07971291e+05	3.00000000e+02	1.82666018e+03	3.65111407e+06	1.13566467e+00	1.80817820e-05	3.94402260e-74	1.40278692e-82	5.54812781e-74
4.07617272e-01	1.29320011e-01	8.73506459e-04	1.04721242e+00	1.07965152e+05	3.00000000e+02	1.82648683e+03	3.65080566e+06	1.13558623e+00	1.80817820e-05	4.81578423e-74	1.69298030e-82	6.77447554e-74
4.07601816e-01	1.29320011e-01	9.70024847e-04	1.04727342e+00	1.07972792e+05	3.00000000e+02	1.82654640e+03	3.65110974e+06	1.13563153e+00	1.80817820e-05	9.42874361e-74	3.27302304e-82	1.32638361e-73
4.07652037e-01	1.29320011e-01	9.47666443e-04	1.04698851e+00	1.07949088e+05	3.00000000e+02	1.82714959e+03	3.65223848e+06	1.13568420e+00	1.80817820e-05	8.27804853e-74	2.85911979e-82	1.16450655e-73
4.07701015e-01	1.29320011e-01	9.22711890e-04	1.04686202e+00	1.07920393e+05	3.00000000e+02	1.82589299e+03	3.64900180e+06	1.13520810e+00	1.80817820e-05	7.16899832e-74	2.46137474e-82	1.00848868e-73
4.07626929e-01	1.29320011e-01	8.95033247e-04	1.04717675e+00	1.07959918e+05	3.00000000e+02	1.82628790e+03	3.65047222e+06	1.13550700e+00	1.80817820e-05	5.49161890e-74	1.92294794e-82	7.72520993e-74
4.07635293e-01	1.29320011e-01	9.12578162e-04	1.04702730e+00	1.07957165e+05	3.00000000e+02	1.82789526e+03	3.65312848e+06	1.13592670e+00	1.80817820e-05	6.27789069e-74	2.19076870e-82	8.83130646e-74
4.07643657e-01	1.29320011e-01	9.30123137e-04	1.04683681e+00	1.07954315e+05	3.00000000e+02	1.82974097e+03	3.65663935e+06	1.13640279e+00	1.80817820e-05	7.20067356e-74	2.50256114e-82	1.01294461e-73
4.07673180e-01	1.29320011e-01	8.71464667e-04	1.04699191e+00	1.07935937e+05	3.00000000e+02	1.82583471e+03	3.64943526e+06	1.13526642e+00	1.80817820e-05	4.82643628e-74	1.68070890e-82	6.78946113e-74
4.07682453e-01	1.29320011e-01	8.88547895e-04	1.04694888e+00	1.07931435e+05	3.00000000e+02	1.82595004e+03	3.64942985e+06	1.13527633e+00	1.80817820e-05	5.49345715e-74	1.90460498e-82	7.72779675e-74
4.07691728e-01	1.29320011e-01	9.05628545e-04	1.04689321e+00	1.07926514e+05	3.00000000e+02	1.82627945e+03	3.64960916e+06	1.13534620e+00	1.80817820e-05	6.26829622e-74	2.16323393e-82	8.81781009e-74
4.07718146e-01	1.29320011e-01	8.45506983e-04	1.04686356e+00	1.07915038e+05	3.00000000e+02	1.82461582e+03	3.64782022e+06	1.13481879e+00	1.80817820e-05	4.17642147e-74	1.44938192e-82	5.87505399e-74
4.07728304e-01	1.29320011e-01	8.62079364e-04	1.04681346e+00	1.07908620e+05	3.00000000e+02	1.82472688e+03	3.64756257e+06	1.13482435e+00	1.80817820e-05	4.73808717e-74	1.63535972e-82	6.66517782e-74
4.07639035e-01	1.29320011e-01	8.02018856e-04	1.04710840e+00	1.07952883e+05	3.00000000e+02	1.82645890e+03	3.65048183e+06	1.13552084e+00	1.80817820e-05	2.86612055e-74	1.02820084e-82	4.03179971e-74
4.07650807e-01	1.29320011e-01	8.26413534e-04	1.04706359e+00	1.07946690e+05	3.00000000e+02	1.82625989e+03	3.65015242e+06	1.13543429e+00	1.80817820e-05	3.49736504e-74	1.23962285e-82	4.91979478e-74
4.07662569e-01	1.29320011e-01	8.50808365e-04	1.04702431e+00	1.07940946e+05	3.00000000e+02	1.82601486e+03	3.64979639e+06	1.13533678e+00	1.80817820e-05	4.24464702e-74	1.48583555e-82	5.97102841e-74
4.07681323e-01	1.29320011e-01	7.79802423e-04	1.04692331e+00	1.07929837e+05	3.00000000e+02	1.82611474e+03	3.64965128e+06	1.13531270e+00	1.80817820e-05	2.51708369e-74	9.02887246e-83	3.54079788e-74
4.07693973e-01	1.29320011e-01	8.02807409e-04	1.04688683e+00	1.07924165e+05	3.00000000e+02	1.82583194e+03	3.64924941e+06	1.13520497e+00	1.80817820e-05	3.05200575e-74	1.08070308e-82	4.29329072e-74
4.07706625e-01	1.29320011e-01	8.25812433e-04	1.04686957e+00	1.07919505e+05	3.00000000e+02	1.82525201e+03	3.64864373e+06	1.13501530e+00	1.80817820e-05	3.68049883e-74	1.28589604e-82	5.17741649e-74
4.07541715e-01	1.29320011e-01	8.13517571e-04	1.04756251e+00	1.08009509e+05	3.00000000e+02	1.82717587e+03	3.65254205e+06	1.13599018e+00	1.80817820e-05	2.86451885e-74	1.04709815e-82	4.02954928e-74
4.07584917e-01	1.29320011e-01	7.96548856e-04	1.04735567e+00	1.07983828e+05	3.00000000e+02	1.82689529e+03	3.65162744e+06	1.13579069e+00	1.80817820e-05	2.60745447e-74	9.49568698e-83	3.66792664e-74
4.06968529e-01	1.29320011e-01	9.64233511e-04	1.05017361e+00	1.08348928e+05	3.00000000e+02	1.83362971e+03	3.66732189e+06	1.13939127e+00	1.80817820e-05	6.69919377e-74	2.66827270e-82	9.42407202e-74
4.06963995e-01	1.29320011e-01	9.83135577e-04	1.05031755e+00	1.08353650e+05	3.00000000e+02	1.83117450e+03	3.66513599e+06	1.13872591e+00	1.80817820e-05	7.75631001e-74	3.07653980e-82	1.09111961e-73
4.07019311e-01	1.29320011e-01	9.75028245e-04	1.04990508e+00	1.08324786e+05	3.00000000e+02	1.83315726e+03	3.66800613e+06	1.13911824e+00	1.80817820e-05	7.50676781e-74	2.94138847e-82	1.05601390e-73
4.07015767e-01	1.29320011e-01	9.94139580e-04	1.05009341e+00	1.08324793e+05	3.00000000e+02	1.83061729e+03	3.66394004e+06	1.13842931e+00	1.80817820e-05	8.70493803e-74	3.39772567e-82	1.22456971e-73
4.06954303e-01	1.29320011e-01	8.12773581e-04	1.05027913e+00	1.08356738e+05	3.00000000e+02	1.83332857e+03	3.66673040e+06	1.13933837e+00	1.80817820e-05	1.96428392e-74	8.32920866e-83	2.76319218e-74
4.06946949e-01	1.29320011e-01	8.41386820e-04	1.05040847e+00	1.08363731e+05	3.00000000e+02	1.83122750e+03	3.66527800e+06	1.13879320e+00	1.80817820e-05	2.46364221e-74	1.03246397e-82	3.46566155e-74
4.06939591e-01	1.29320011e-01	8.69996448e-04	1.05045626e+00	1.08368989e+05	3.00000000e+02	1.83117485e+03	3.66534603e+06	1.13880294e+00	1.80817820e-05	3.07478813e-74	1.27611340e-82	4.32539113e-74
4.06932218e-01	1.29320011e-01	8.98612040e-04	1.05051283e+00	1.08372960e+05	3.00000000e+02	1.83080334e+03	3.66495697e+06	1.13871751e+00	1.80817820e-05	3.82048743e-74	1.57170544e-82	5.37440820e-74
4.07004369e-01	1.29320011e-01	7.93563599e-04	1.04991164e+00	1.08335592e+05	3.00000000e+02	1.83412459e+03	3.67012486e+06	1.13942383e+00	1.80817820e-05	1.74715276e-74	7.37451421e-83	2.45774271e-74
4.06998269e-01	1.29320011e-01	8.22883095e-04	1.04999797e+00	1.08337619e+05	3.00000000e+02	1.83334246e+03	3.66868290e+06	1.13922754e+00	1.80817820e-05	2.21323845e-74	9.22344256e-83	3.11340403e-74
4.06992175e-01	1.29320011e-01	8.52204278e-04	1.05020842e+00	1.08338287e+05	3.00000000e+02	1.83069046e+03	3.66427101e+06	1.13851771e+00	1.80817820e-05	2.78786712e-74	1.14833344e-82	3.92176060e-74
4.06986072e-01	1.29320011e-01	8.81526807e-04	1.05023525e+00	1.08341184e+05	3.00000000e+02	1.83067251e+03	3.66429828e+06	1.13852661e+00	1.80817820e-05	3.49434644e-74	1.42558825e-82	4.91560189e-74
4.06979971e-01	1.29320011e-01	9.10846800e-04	1.05024042e+00	1.08344652e+05	3.00000000e+02	1.83085907e+03	3.66491355e+06	1.13858728e+00	1.80817820e-05	4.36044699e-74	1.76419884e-82	6.13399619e-74
4.06973877e-01	1.29320011e-01	9.40168272e-04	1.05028804e+00	1.08344020e+05	3.00000000e+02	1.83259084e+03	3.66399682e+06	1.13907526e+00	1.80817820e-05	5.41991818e-74	2.17695761e-82	7.62442318e-74
4.07066596e-01	1.29320011e-01	6.81564891e-04	1.04985690e+00	1.08295337e+05	3.00000000e+02	1.83045012e+03	3.66287455e+06	1.13825064e+00	1.80817820e-05	6.81267232e-75	3.02099070e-83	9.58331889e-75
4.07061805e-01	1.29320011e-01	7.11455468e-04	1.04988082e+00	1.08298503e+05	3.00000000e+02	1.83043249e+03	3.66301784e+06	1.13825910e+00	1.80817820e-05	8.96095285e-75	3.89890550e-83	1.26053389e-74
4.07057024e-01	1.29320011e-01	7.41340868e-04	1.04990359e+00	1.08301545e+05	3.00000000e+02	1.83047400e+03	3.66316124e+06	1.13828496e+00	1.80817820e-05	1.16486033e-74	4.98032192e-83	1.63861166e-74
4.07052241e-01	1.29320011e-01	7.71230181e-04	1.04990990e+00	1.08304618e+05	3.00000000e+02	1.83078306e+03	3.66367073e+06	1.13838395e+00	1.80817820e-05	1.50107528e-74	6.31845427e-83	2.11157482e-74
4.07047443e-01	1.29320011e-01	8.01119533e-04	1.04990597e+00	1.08308486e+05	3.00000000e+02	1.83150616e+03	3.66456537e+06	1.13860697e+00	1.80817820e-05	1.91997653e-74	7.97050412e-83	2.70085774e-74
4.07042652e-01	1.29320011e-01	8.31010575e-04	1.04995408e+00	1.08310692e+05	3.00000000e+02	1.83102876e+03	3.66398768e+06	1.13848460e+00	1.80817820e-05	2.44009259e-74	1.00032711e-82	3.43252628e-74
4.07037869e-01	1.29320011e-01	8.60900089e-04	1.05000443e+00	1.08312451e+05	3.00000000e+02	1.83035057e+03	3.66326648e+06	1.13830140e+00	1.80817820e-05	3.08386568e-74	1.25042693e-82	4.33815224e-74
4.07033080e-01	1.29320011e-01	8.90788331e-04	1.05002792e+00	1.08315312e+05	3.00000000e+02	1.83034505e+03	3.66335824e+06	1.13831245e+00	1.80817820e-05	3.87827454e-74	1.55772053e-82	5.45568970e-74
4.07028288e-01	1.29320011e-01	9.20679567e-04	1.05002387e+00	1.08318989e+05	3.00000000e+02	1.83077253e+03	3.66421698e+06	1.13844298e+00	1.80817820e-05	4.85579372e-74	1.93454342e-82	6.83082475e-74
4.07023505e-01	1.29320011e-01	9.50569507e-04	1.04980152e+00	1.08323528e+05	3.00000000e+02	1.83419528e+03	3.66997737e+06	1.13938615e+00	1.80817820e-05	6.05554926e-74	2.39589911e-82	8.51860145e-74
4.07065995e-01	1.29320011e-01	6.45273186e-04	1.04984469e+00	1.08295918e+05	3.00000000e+02	1.83065247e+03	3.66325312e+06	1.13830922e+00	1.80817820e-05	4.58081214e-75	2.11561475e-83	6.44374359e-75
4.07104604e-01	1.29320011e-01	6.85545827e-04	1.04966108e+00	1.08271981e+05	3.00000000e+02	1.83025225e+03	3.66220586e+06	1.13808510e+00	1.80817820e-05	7.27102992e-75	3.18123572e-83	1.02280868e-74
4.07101155e-01	1.29320011e-01	7.15859998e-04	1.04968210e+00	1.08274264e+05	3.00000000e+02	1.83024700e+03	3.66223277e+06	1.13809399e+00	1.80817820e-05	9.58616429e-75	4.11408130e-83	1.34848229e-74
4.07097712e-01	1.29320011e-01	7.46179661e-04	1.04969830e+00	1.08276433e+05	3.00000000e+02	1.83028422e+03	3.66233611e+06	1.13811465e+00	1.80817820e-05	1.24889480e-74	5.26589542e-83	1.75682340e-74
4.07094270e-01	1.29320011e-01	7.76495733e-04	1.04970461e+00	1.08278502e+05	3.00000000e+02	1.83047793e+03	3.66263467e+06	1.13817795e+00	1.80817820e-05	1.61295469e-74	6.69404653e-83	2.26895694e-74
4.07090813e-01	1.29320011e-01	8.06811986e-04	1.04972347e+00	1.08280529e+05	3.00000000e+02	1.83054312e+03	3.66265163e+06	1.13820845e+00	1.80817820e-05	2.06779263e-74	8.46103196e-83	2.90879341e-74
4.07087371e-01	1.29320011e-01	8.37128387e-04	1.04975556e+00	1.08282565e+05	3.00000000e+02	1.83027968e+03	3.66238407e+06	1.13814412e+00	1.80817820e-05	2.63410049e-74	1.06438189e-82	3.70544209e-74
4.07083937e-01	1.29320011e-01	8.67443311e-04	1.04978040e+00	1.08284846e+05	3.00000000e+02	1.83010854e+03	3.66232443e+06	1.13810455e+00	1.80817820e-05	3.33697245e-74	1.33380239e-82	4.69420561e-74
4.07080487e-01	1.29320011e-01	8.97761632e-04	1.04979466e+00	1.08287059e+05	3.00000000e+02	1.83015937e+03	3.66248021e+06	1.13812802e+00	1.80817820e-05	4.20679801e-74	1.66578068e-82	5.91783642e-74
4.07077039e-01	1.29320011e-01	9.28076910e-04	1.04979165e+00	1.08289308e+05	3.00000000e+02	1.83051608e+03	3.66301742e+06	1.13823711e+00	1.80817820e-05	5.28016725e-74	2.07397571e-82	7.42781056e-74
4.07073597e-01	1.29320011e-01	9.58393867e-04	1.04978064e+00	1.08292248e+05	3.00000000e+02	1.83124267e+03	3.66387070e+06	1.13845741e+00	1.80817820e-05	6.60139193e-74	2.57299969e-82	9.28646801e-74
4.07104092e-01	1.29320011e-01	6.48907808e-04	1.04966397e+00	1.08272178e+05	3.00000000e+02	1.83031170e+03	3.66218971e+06	1.13810356e+00	1.80817820e-05	4.89729467e-75	2.23158425e-83	6.88893319e-75
4.07142722e-01	1.29320011e-01	6.88211584e-04	1.04946425e+00	1.08247453e+05	3.00000000e+02	1.83007110e+03	3.66132394e+06	1.13792074e+00	1.80817820e-05	7.63620171e-75	3.30131795e-83	1.07417685e-74
4.07140636e-01	1.29320011e-01	7.18816031e-04	1.04947894e+00	1.08249346e+05	3.00000000e+02	1.83007691e+03	3.66140189e+06	1.13793091e+00	1.80817820e-05	1.00830069e-74	4.27453647e-83	1.41837273e-74
4.07138558e-01	1.29320011e-01	7.49411309e-04	1.04949013e+00	1.08250880e+05	3.00000000e+02	1.83007936e+03	3.66147978e+06	1.13793830e+00	1.80817820e-05	1.31537234e-74	5.47735795e-83	1.85033724e-74
4.07136486e-01	1.29320011e-01	7.80015973e-04	1.04949785e+00	1.08252352e+05	3.00000000e+02	1.83015805e+03	3.66162366e+06	1.13796623e+00	1.80817820e-05	1.70109208e-74	6.97043965e-83	2.39294023e-74
4.07134415e-01	1.29320011e-01	8.10617176e-04	1.04951427e+00	1.08253615e+05	3.00000000e+02	1.83011198e+03	3.66153217e+06	1.13796118e+00	1.80817820e-05	2.18384068e-74	8.82092598e-83	3.07203953e-74
4.07132345e-01	1.29320011e-01	8.41215250e-04	1.04953580e+00	1.08255066e+05	3.00000000e+02	1.82992438e+03	3.66137159e+06	1.13791433e+00	1.80817820e-05	2.78590524e-74	1.11114341e-82	3.91898859e-74
4.07130273e-01	1.29320011e-01	8.71820021e-04	1.04955207e+00	1.08256624e+05	3.00000000e+02	1.82984957e+03	3.66134575e+06	1.13790006e+00	1.80817820e-05	3.53456257e-74	1.39443072e-82	4.97216054e-74
4.07128195e-01	1.29320011e-01	9.02419981e-04	1.04955942e+00	1.08258106e+05	3.00000000e+02	1.82990940e+03	3.66149803e+06	1.13792248e+00	1.80817820e-05	4.46284326e-74	1.74425223e-82	6.27802341e-74
4.07126109e-01	1.29320011e-01	9.33021806e-04	1.04956004e+00	1.08259660e+05	3.00000000e+02	1.83011961e+03	3.66181056e+06	1.13798815e+00	1.80817820e-05	5.61088247e-74	2.17549627e-82	7.89304061e-74
4.07180915e-01	1.29320011e-01	6.89548161e-04	1.04923395e+00	1.08221483e+05	3.00000000e+02	1.83033060e+03	3.66085798e+06	1.13787696e+00	1.80817820e-05	7.89582469e-75	3.37860769e-83	1.11069727e-74
4.07180223e-01	1.29320011e-01	7.20289465e-04	1.04926960e+00	1.08223975e+05	3.00000000e+02	1.82989045e+03	3.66060824e+06	1.13775982e+00	1.80817820e-05	1.04332430e-74	4.37526248e-83	1.46763965e-74
4.07179530e-01	1.29320011e-01	7.51034809e-04	1.04927346e+00	1.08224487e+05	3.00000000e+02	1.82989577e+03	3.66063215e+06	1.13776357e+00	1.80817820e-05	1.36173671e-74	5.60793492e-83	1.91555726e-74
4.07178837e-01	1.29320011e-01	7.81776589e-04	1.04928104e+00	1.08225414e+05	3.00000000e+02	1.82991835e+03	3.66066368e+06	1.13777433e+00	1.80817820e-05	1.76190013e-74	7.13807481e-83	2.47847832e-74
4.07178151e-01	1.29320011e-01	8.12520462e-04	1.04929606e+00	1.08226512e+05	3.00000000e+02	1.82982775e+03	3.66056830e+06	1.13775450e+00	1.80817820e-05	2.26307023e-74	9.03563119e-83	3.18349147e-74
4.07177459e-01	1.29320011e-01	8.43266066e-04	1.04931252e+00	1.08227400e+05	3.00000000e+02	1.82966011e+03	3.66039911e+06	1.13771112e+00	1.80817820e-05	2.88864522e-74	1.13865442e-82	4.06351324e-74
4.07176766e-01	1.29320011e-01	8.74008503e-04	1.04932154e+00	1.08228326e+05	3.00000000e+02	1.82959341e+03	3.66039756e+06	1.13769545e+00	1.80817820e-05	3.66719943e-74	1.42967812e-82	5.15874206e-74
4.07176073e-01	1.29320011e-01	9.04754330e-04	1.04932539e+00	1.08229208e+05	3.00000000e+02	1.82963562e+03	3.66050029e+06	1.13771031e+00	1.80817820e-05	4.63360073e-74	1.78953298e-82	6.51823068e-74