VARIABLES ="X" "Y" "Z" "rho" "press" "temp" "tau_wall" "qdot" "yplus" "muLam" "ZMean" "ZVar" "CMean" 
Zone T ="wall" I = 7342 , F = point
4.22644735e-01	1.19520001e-01	3.22265644e-03	5.65953283e-01	1.28584465e+05	3.00000000e+02	1.05603942e+03	4.81149108e+06	9.12807196e-01	1.66587222e-05	1.10345130e-01	4.38765930e-10	1.77290392e-01
4.23697397e-01	1.19520001e-01	2.63671891e-03	4.64062985e-01	1.29609972e+05	3.00000000e+02	1.31778894e+03	4.09826968e+06	9.73165957e-01	1.58057413e-05	1.53779427e-01	1.53677071e-09	6.65157282e-02
4.22644734e-01	1.19520001e-01	2.63671891e-03	4.49701739e-01	1.28513928e+05	3.00000000e+02	1.34971181e+03	3.97478907e+06	9.75231699e-01	1.57132270e-05	1.59419153e-01	1.81530506e-09	5.72940384e-02
4.23697397e-01	1.19520001e-01	2.05078133e-03	3.49561413e-01	1.29709459e+05	3.00000000e+02	1.40529349e+03	3.13688495e+06	9.44186404e-01	1.46008421e-05	2.33688841e-01	3.97991476e-09	2.04800411e-02
4.22644735e-01	1.19520001e-01	2.05078133e-03	3.34634900e-01	1.28694587e+05	3.00000000e+02	1.41250638e+03	3.00720833e+06	9.36648818e-01	1.44375806e-05	2.45589016e-01	4.43108585e-09	1.77850242e-02
4.23697397e-01	1.19520001e-01	1.46484381e-03	2.78627221e-01	1.32237559e+05	3.00000000e+02	1.44867136e+03	2.54040932e+06	9.28792979e-01	1.34545188e-05	3.23551864e-01	6.76793502e-09	7.41904973e-03
4.22644735e-01	1.19520001e-01	1.46484381e-03	2.63172127e-01	1.31064906e+05	3.00000000e+02	1.44573556e+03	2.36928632e+06	9.18168955e-01	1.32139347e-05	3.44288872e-01	7.26841525e-09	6.55460624e-03
4.23697397e-01	1.19520001e-01	8.78906286e-04	2.17352810e-01	1.33123962e+05	3.00000000e+02	1.03372098e+03	1.33061130e+06	7.66545013e-01	1.21628966e-05	4.48100583e-01	2.96494545e-09	3.28004006e-03
4.22644735e-01	1.19520001e-01	8.78906286e-04	2.03726177e-01	1.30928877e+05	3.00000000e+02	1.03563276e+03	1.18760072e+06	7.57588864e-01	1.19256789e-05	4.74964271e-01	2.86688354e-09	2.98431679e-03
4.23697397e-01	1.19520001e-01	2.92968761e-04	1.64805104e-01	1.36444934e+05	3.00000000e+02	6.77581962e+02	4.98719573e+05	6.12843471e-01	1.07252412e-05	6.39899137e-01	3.99373195e-10	1.83202700e-03
4.22644734e-01	1.19520001e-01	2.92968761e-04	1.57097560e-01	1.33985285e+05	3.00000000e+02	6.83765148e+02	4.26824237e+05	6.08679045e-01	1.05910797e-05	6.62126370e-01	3.30023555e-10	1.76486874e-03
4.34353665e-01	1.19520001e-01	9.08203144e-03	1.42627609e+00	1.69083704e+05	3.00000000e+02	2.15507048e+03	5.33299103e+06	1.90713613e+00	1.80817821e-05	7.67661968e-09	9.31655684e-20	9.31848542e-08
4.33277353e-01	1.19520001e-01	9.08203144e-03	1.43994093e+00	1.71700311e+05	3.00000000e+02	2.17145377e+03	5.44892326e+06	1.92352035e+00	1.80817821e-05	5.95567853e-09	1.52680743e-19	7.39332307e-08
4.32203412e-01	1.19520001e-01	9.08203144e-03	1.44041244e+00	1.72669075e+05	3.00000000e+02	2.19199528e+03	5.55507327e+06	1.93291339e+00	1.80817821e-05	4.50014063e-09	1.04190491e-19	5.74525856e-08
4.31131870e-01	1.19520001e-01	9.08203144e-03	1.42515705e+00	1.71396920e+05	3.00000000e+02	2.20738786e+03	5.62052715e+06	1.92938920e+00	1.80817821e-05	3.27667490e-09	-8.28929103e-21	4.34456521e-08
4.30062726e-01	1.19520001e-01	9.08203143e-03	1.39234132e+00	1.67215298e+05	3.00000000e+02	2.20242334e+03	5.59223474e+06	1.90490100e+00	1.80817821e-05	2.26073273e-09	-6.91954569e-20	3.17104570e-08
4.28995937e-01	1.19520001e-01	9.08203144e-03	1.34055452e+00	1.59546143e+05	3.00000000e+02	2.16591779e+03	5.41103404e+06	1.85358446e+00	1.80817821e-05	1.44182440e-09	-8.27975436e-20	2.21690078e-08
4.27931517e-01	1.19520001e-01	9.08203144e-03	1.27555406e+00	1.49483905e+05	3.00000000e+02	2.11392710e+03	5.10569945e+06	1.78625556e+00	1.80817820e-05	8.21493548e-10	-8.91723803e-20	1.48588042e-08
4.26869452e-01	1.19520001e-01	9.08203144e-03	1.21654580e+00	1.40334715e+05	3.00000000e+02	2.07753970e+03	4.79854533e+06	1.72937052e+00	1.80817820e-05	4.18903460e-10	-9.05160824e-20	1.00603670e-08
4.25809741e-01	1.19520001e-01	9.08203144e-03	1.18475701e+00	1.35311009e+05	3.00000000e+02	2.07382717e+03	4.60714744e+06	1.70510088e+00	1.80817820e-05	1.49089987e-10	-9.77479592e-20	6.87846599e-09
4.24752399e-01	1.19520001e-01	9.08203143e-03	1.19240353e+00	1.36072310e+05	3.00000000e+02	2.09871904e+03	4.59145250e+06	1.72082985e+00	1.80817820e-05	-2.68874955e-11	-1.20128999e-19	4.84754169e-09
4.23697397e-01	1.19520001e-01	9.08203144e-03	1.22911890e+00	1.40980002e+05	3.00000000e+02	2.12340800e+03	4.68905348e+06	1.75736846e+00	1.80817820e-05	-1.47780901e-10	-1.62493554e-19	3.51782689e-09
4.34353664e-01	1.19520001e-01	8.49609403e-03	1.41124970e+00	1.67965896e+05	3.00000000e+02	2.21074880e+03	5.41173665e+06	1.92141325e+00	1.80817822e-05	1.17684258e-07	-7.47018769e-18	1.32851753e-06
4.33277353e-01	1.19520001e-01	8.49609403e-03	1.42985340e+00	1.71296786e+05	3.00000000e+02	2.23282544e+03	5.54258445e+06	1.94366894e+00	1.80817822e-05	9.79066544e-08	-6.51364626e-18	1.11673839e-06
4.32203412e-01	1.19520001e-01	8.49609403e-03	1.43928108e+00	1.73508776e+05	3.00000000e+02	2.25333545e+03	5.66865103e+06	1.95900203e+00	1.80817822e-05	7.95842909e-08	-4.17300733e-18	9.18017128e-07
4.31131869e-01	1.19520001e-01	8.49609403e-03	1.43401933e+00	1.73594745e+05	3.00000000e+02	2.26088858e+03	5.75286599e+06	1.95869239e+00	1.80817821e-05	6.37156792e-08	-1.77899213e-18	7.43805045e-07
4.30062726e-01	1.19520001e-01	8.49609403e-03	1.40688719e+00	1.70158032e+05	3.00000000e+02	2.24443021e+03	5.73472164e+06	1.93299996e+00	1.80817821e-05	5.09731566e-08	-7.57589606e-19	6.02624639e-07
4.28995937e-01	1.19520001e-01	8.49609403e-03	1.35480618e+00	1.62336697e+05	3.00000000e+02	2.19667641e+03	5.54637006e+06	1.87659598e+00	1.80817821e-05	4.13251962e-08	-6.80936077e-19	4.95214439e-07
4.27931517e-01	1.19520001e-01	8.49609403e-03	1.28500466e+00	1.51388795e+05	3.00000000e+02	2.13429802e+03	5.20955618e+06	1.80147830e+00	1.80817821e-05	3.42277183e-08	-7.27503051e-19	4.16005429e-07
4.26869452e-01	1.19520001e-01	8.49609403e-03	1.22136644e+00	1.41437190e+05	3.00000000e+02	2.08998938e+03	4.87334597e+06	1.73797764e+00	1.80817821e-05	2.92541940e-08	-7.50606890e-19	3.60358809e-07
4.25809741e-01	1.19520001e-01	8.49609403e-03	1.18588912e+00	1.35803781e+05	3.00000000e+02	2.07801327e+03	4.65836283e+06	1.70763621e+00	1.80817821e-05	2.54252791e-08	-8.40367261e-19	3.17110058e-07
4.24752400e-01	1.19520001e-01	8.49609403e-03	1.18933014e+00	1.35963270e+05	3.00000000e+02	2.09706942e+03	4.62540528e+06	1.71793517e+00	1.80817821e-05	2.22982825e-08	-1.11772211e-18	2.81284077e-07
4.23697397e-01	1.19520001e-01	8.49609403e-03	1.22085923e+00	1.40179414e+05	3.00000000e+02	2.11865355e+03	4.70914889e+06	1.74949185e+00	1.80817821e-05	1.95091479e-08	-1.66146095e-18	2.48704695e-07
4.34353665e-01	1.19520001e-01	7.91015662e-03	1.39525247e+00	1.66694787e+05	3.00000000e+02	2.27531370e+03	5.48767611e+06	1.93818913e+00	1.80817838e-05	1.26245336e-06	-7.83783819e-17	1.37203044e-05
4.33277353e-01	1.19520001e-01	7.91015662e-03	1.41973197e+00	1.70887907e+05	3.00000000e+02	2.30481601e+03	5.63742041e+06	1.96775231e+00	1.80817836e-05	1.07600801e-06	-9.07020937e-17	1.17977143e-05
4.32203412e-01	1.19520001e-01	7.91015662e-03	1.43982855e+00	1.74594137e+05	3.00000000e+02	2.32558009e+03	5.78733040e+06	1.99053659e+00	1.80817833e-05	8.87618345e-07	-8.24267610e-17	9.84243716e-06
4.31131870e-01	1.19520001e-01	7.91015663e-03	1.44736935e+00	1.76457208e+05	3.00000000e+02	2.32380628e+03	5.89727662e+06	1.99498106e+00	1.80817830e-05	7.15371012e-07	-5.10227953e-17	8.03919532e-06
4.30062726e-01	1.19520001e-01	7.91015662e-03	1.42933237e+00	1.74190345e+05	3.00000000e+02	2.28924360e+03	5.88931512e+06	1.96771300e+00	1.80817828e-05	5.74072628e-07	-1.38533208e-17	6.54776079e-06
4.28995937e-01	1.19520001e-01	7.91015662e-03	1.37821148e+00	1.66412794e+05	3.00000000e+02	2.22583735e+03	5.70100633e+06	1.90525795e+00	1.80817827e-05	4.70148289e-07	-2.04159553e-18	5.44822452e-06
4.27931518e-01	1.19520001e-01	7.91015663e-03	1.30104067e+00	1.54137492e+05	3.00000000e+02	2.14774764e+03	5.32014362e+06	1.81838652e+00	1.80817826e-05	4.00149661e-07	-2.03465505e-18	4.71638025e-06
4.26869452e-01	1.19520001e-01	7.91015663e-03	1.22932935e+00	1.42878793e+05	3.00000000e+02	2.09496699e+03	4.94400043e+06	1.74570904e+00	1.80817825e-05	3.61274534e-07	-1.68796522e-18	4.32989789e-06
4.25809741e-01	1.19520001e-01	7.91015662e-03	1.18806848e+00	1.36355477e+05	3.00000000e+02	2.07457308e+03	4.70084323e+06	1.70778915e+00	1.80817825e-05	3.38754216e-07	-1.70970233e-18	4.12603463e-06
4.24752399e-01	1.19520001e-01	7.91015663e-03	1.18610910e+00	1.35732669e+05	3.00000000e+02	2.08607832e+03	4.64477496e+06	1.71110543e+00	1.80817825e-05	3.24953178e-07	-2.33083019e-18	4.02092672e-06
4.34353665e-01	1.19520001e-01	7.32421899e-03	1.38180500e+00	1.65403326e+05	3.00000000e+02	2.33302072e+03	5.52548082e+06	1.95313094e+00	1.80818017e-05	1.08708169e-05	8.12654377e-17	1.15197598e-04
4.33277354e-01	1.19520001e-01	7.32421898e-03	1.41228580e+00	1.70587823e+05	3.00000000e+02	2.37543113e+03	5.70786893e+06	1.99242171e+00	1.80817990e-05	9.61949386e-06	-3.57551968e-17	1.02299973e-04
4.32203412e-01	1.19520001e-01	7.32421899e-03	1.44367617e+00	1.75928704e+05	3.00000000e+02	2.39913002e+03	5.88793732e+06	2.02446654e+00	1.80817961e-05	8.26000934e-06	-1.17130467e-16	8.84015452e-05
4.31131869e-01	1.19520001e-01	7.32421898e-03	1.46603444e+00	1.79864779e+05	3.00000000e+02	2.38862462e+03	6.02666160e+06	2.03561161e+00	1.80817935e-05	6.92447624e-06	-9.55499921e-17	7.48401410e-05
4.30062726e-01	1.19520001e-01	7.32421899e-03	1.46146042e+00	1.79416276e+05	3.00000000e+02	2.33376563e+03	6.03963724e+06	2.00895904e+00	1.80817913e-05	5.74913663e-06	3.77330280e-17	6.29920708e-05
4.28995937e-01	1.19520001e-01	7.32421899e-03	1.41519668e+00	1.72175806e+05	3.00000000e+02	2.24525519e+03	5.85457958e+06	1.93905544e+00	1.80817897e-05	4.84987207e-06	6.99248077e-17	5.40511515e-05
4.27931518e-01	1.19520001e-01	7.32421898e-03	1.32872888e+00	1.58236391e+05	3.00000000e+02	2.14509634e+03	5.42315683e+06	1.83649852e+00	1.80817887e-05	4.27220452e-06	-3.44579935e-17	4.85417346e-05
4.26869452e-01	1.19520001e-01	7.32421898e-03	1.24414764e+00	1.44942920e+05	3.00000000e+02	2.08245041e+03	4.98975663e+06	1.75094417e+00	1.80817883e-05	4.06224484e-06	-6.73049531e-17	4.71049112e-05
4.25809741e-01	1.19520001e-01	7.32421899e-03	1.19373138e+00	1.37036675e+05	3.00000000e+02	2.05253327e+03	4.70497936e+06	1.70273637e+00	1.80817884e-05	4.09491834e-06	-6.90764989e-17	4.84585198e-05
4.24752400e-01	1.19520001e-01	7.32421899e-03	1.18503045e+00	1.35379021e+05	3.00000000e+02	2.05202583e+03	4.61204906e+06	1.69630976e+00	1.80817887e-05	4.27265263e-06	-6.35732033e-17	5.16098205e-05
4.34353665e-01	1.19520001e-01	6.73828158e-03	1.37562779e+00	1.64586226e+05	3.00000000e+02	2.36599679e+03	5.51286168e+06	1.96245099e+00	1.80821101e-05	7.28483844e-05	7.46422428e-15	7.91212173e-04
4.33277354e-01	1.19520001e-01	6.73828158e-03	1.41059249e+00	1.70474832e+05	3.00000000e+02	2.41860779e+03	5.71615469e+06	2.00921212e+00	1.80820682e-05	6.73329225e-05	8.38851147e-15	7.27318470e-04
4.32203412e-01	1.19520001e-01	6.73828158e-03	1.45029773e+00	1.77089097e+05	3.00000000e+02	2.44902900e+03	5.92678357e+06	2.05007085e+00	1.80820249e-05	6.11614849e-05	9.39631457e-15	6.57205069e-04
4.31131869e-01	1.19520001e-01	6.73828157e-03	1.48573299e+00	1.82820287e+05	3.00000000e+02	2.43226987e+03	6.08592032e+06	2.06785736e+00	1.80819835e-05	5.46861603e-05	1.00605316e-14	5.85259610e-04
4.30062726e-01	1.19520001e-01	6.73828158e-03	1.49659760e+00	1.84489467e+05	3.00000000e+02	2.35996965e+03	6.12348257e+06	2.04432960e+00	1.80819472e-05	4.84011394e-05	1.00463037e-14	5.17147479e-04
4.28995937e-01	1.19520001e-01	6.73828158e-03	1.46053041e+00	1.78566629e+05	3.00000000e+02	2.24521347e+03	5.95378826e+06	1.96983554e+00	1.80819197e-05	4.31085551e-05	8.99520433e-15	4.62210726e-04
4.27931518e-01	1.19520001e-01	6.73828157e-03	1.36902293e+00	1.63571328e+05	3.00000000e+02	2.12098365e+03	5.48712832e+06	1.85361806e+00	1.80819038e-05	3.96921767e-05	6.75919814e-15	4.30322704e-04
4.26869452e-01	1.19520001e-01	6.73828157e-03	1.26720924e+00	1.47757558e+05	3.00000000e+02	2.05147848e+03	5.00453709e+06	1.75389618e+00	1.80819036e-05	3.94309650e-05	4.96829285e-15	4.34547120e-04
4.25809741e-01	1.19520001e-01	6.73828158e-03	1.20341484e+00	1.37922242e+05	3.00000000e+02	2.01639015e+03	4.67095992e+06	1.69449712e+00	1.80819187e-05	4.21863362e-05	4.40100124e-15	4.73867414e-04
4.24752400e-01	1.19520001e-01	6.73828158e-03	1.18600220e+00	1.34982604e+05	3.00000000e+02	2.00618383e+03	4.53743128e+06	1.67792784e+00	1.80819480e-05	4.72472332e-05	5.00335588e-15	5.42119250e-04
4.34353665e-01	1.19520001e-01	6.15234417e-03	1.38002834e+00	1.64793504e+05	3.00000000e+02	2.35312749e+03	5.44539617e+06	1.95960232e+00	1.80879426e-05	3.81142917e-04	1.09496166e-13	4.48660979e-03
4.33277354e-01	1.19520001e-01	6.15234417e-03	1.41656346e+00	1.70814688e+05	3.00000000e+02	2.40855118e+03	5.64471292e+06	2.00866530e+00	1.80875092e-05	3.67028616e-04	1.27763884e-13	4.26071116e-03
4.32203412e-01	1.19520001e-01	6.15234417e-03	1.46100526e+00	1.77979073e+05	3.00000000e+02	2.43928268e+03	5.85503313e+06	2.05295050e+00	1.80870968e-05	3.52998600e-04	1.52947331e-13	4.03911038e-03
4.31131869e-01	1.19520001e-01	6.15234417e-03	1.50461289e+00	1.84739667e+05	3.00000000e+02	2.42031084e+03	6.01932563e+06	2.07529206e+00	1.80866912e-05	3.38490175e-04	1.80388117e-13	3.81557070e-03
4.30062726e-01	1.19520001e-01	6.15234417e-03	1.53018578e+00	1.88240515e+05	3.00000000e+02	2.33387898e+03	6.06095214e+06	2.05519118e+00	1.80862865e-05	3.23180197e-04	1.98437144e-13	3.58705578e-03
4.28995937e-01	1.19520001e-01	6.15234417e-03	1.50961954e+00	1.84212554e+05	3.00000000e+02	2.19326369e+03	5.89511990e+06	1.97892378e+00	1.80859155e-05	3.08420125e-04	1.92992133e-13	3.37032075e-03
4.27931518e-01	1.19520001e-01	6.15234417e-03	1.42270794e+00	1.69667783e+05	3.00000000e+02	2.04151063e+03	5.42932340e+06	1.85348613e+00	1.80856759e-05	2.98859574e-04	1.61618460e-13	3.21951838e-03
4.26869452e-01	1.19520001e-01	6.15234417e-03	1.30273021e+00	1.51542448e+05	3.00000000e+02	1.97164398e+03	4.93531765e+06	1.74298749e+00	1.80857951e-05	3.05821574e-04	1.33118567e-13	3.25706662e-03
4.25809741e-01	1.19520001e-01	6.15234417e-03	1.21870874e+00	1.39371024e+05	3.00000000e+02	1.95401949e+03	4.60088249e+06	1.67822768e+00	1.80864743e-05	3.38038339e-04	1.29650519e-13	3.56376162e-03
4.24752399e-01	1.19520001e-01	6.15234417e-03	1.18701460e+00	1.34628145e+05	3.00000000e+02	1.94505370e+03	4.43577219e+06	1.65233720e+00	1.80877911e-05	3.94453012e-04	1.53025884e-13	4.11095315e-03
4.34353665e-01	1.19520001e-01	5.56640653e-03	1.39782274e+00	1.66222586e+05	3.00000000e+02	2.17129434e+03	5.29214121e+06	1.89746746e+00	1.80593223e-05	1.58547948e-03	9.64797876e-13	1.42788016e-02
4.33277354e-01	1.19520001e-01	5.56640653e-03	1.43117780e+00	1.71511909e+05	3.00000000e+02	2.21834764e+03	5.44879706e+06	1.94051984e+00	1.80606717e-05	1.57797597e-03	1.14914924e-12	1.41637513e-02
4.32203412e-01	1.19520001e-01	5.56640653e-03	1.47514847e+00	1.78330793e+05	3.00000000e+02	2.23560249e+03	5.62656063e+06	1.97774355e+00	1.80607411e-05	1.59276723e-03	1.43848764e-12	1.41922544e-02
4.31131869e-01	1.19520001e-01	5.56640653e-03	1.51999975e+00	1.85022233e+05	3.00000000e+02	2.20719291e+03	5.76764028e+06	1.99488739e+00	1.80598403e-05	1.62122727e-03	1.80032595e-12	1.43152900e-02
4.30062726e-01	1.19520001e-01	5.56640653e-03	1.55409067e+00	1.89429351e+05	3.00000000e+02	2.10962392e+03	5.79489043e+06	1.97223017e+00	1.80581594e-05	1.65597644e-03	2.11982742e-12	1.44925872e-02
4.28995937e-01	1.19520001e-01	5.56640653e-03	1.54819990e+00	1.87318345e+05	3.00000000e+02	1.95855149e+03	5.64086126e+06	1.89687980e+00	1.80564174e-05	1.68542346e-03	2.20465577e-12	1.46525144e-02
4.27931518e-01	1.19520001e-01	5.56640653e-03	1.47460960e+00	1.75193422e+05	3.00000000e+02	1.80717129e+03	5.26869302e+06	1.77849004e+00	1.80541537e-05	1.71247352e-03	1.98745779e-12	1.48324761e-02
4.26869452e-01	1.19520001e-01	5.56640653e-03	1.34893684e+00	1.56664194e+05	3.00000000e+02	1.72910298e+03	4.82349694e+06	1.66493286e+00	1.80426323e-05	1.77605828e-03	1.66584853e-12	1.54132762e-02
4.25809741e-01	1.19520001e-01	5.56640653e-03	1.23648038e+00	1.42051249e+05	3.00000000e+02	1.72855696e+03	4.62244388e+06	1.59564618e+00	1.80214300e-05	1.96949301e-03	1.62536470e-12	1.71562425e-02
4.33277354e-01	1.19520001e-01	4.98046889e-03	1.43199259e+00	1.72831712e+05	3.00000000e+02	1.86651422e+03	5.40453836e+06	1.78753621e+00	1.79896027e-05	5.43617290e-03	6.50935630e-12	4.41565441e-02
4.32203412e-01	1.19520001e-01	4.98046889e-03	1.46335461e+00	1.78685966e+05	3.00000000e+02	1.85742199e+03	5.65542706e+06	1.80435055e+00	1.79721299e-05	5.67866767e-03	8.12746335e-12	4.61578742e-02
4.31131869e-01	1.19520001e-01	4.98046889e-03	1.50071511e+00	1.84333851e+05	3.00000000e+02	1.81648014e+03	5.73696255e+06	1.80561545e+00	1.79857924e-05	6.03341267e-03	1.08397078e-11	4.85769987e-02
4.30062726e-01	1.19520001e-01	4.98046889e-03	1.52735402e+00	1.88689658e+05	3.00000000e+02	1.71890702e+03	5.84083521e+06	1.77201456e+00	1.79853606e-05	6.46774478e-03	1.34405062e-11	5.15994092e-02
4.28995937e-01	1.19520001e-01	4.98046889e-03	1.52027723e+00	1.87686753e+05	3.00000000e+02	1.58016954e+03	5.78423499e+06	1.69501774e+00	1.79857840e-05	6.91274784e-03	1.53672718e-11	5.46750744e-02
4.27931518e-01	1.19520001e-01	4.98046889e-03	1.46625121e+00	1.78854834e+05	3.00000000e+02	1.44671295e+03	5.47303313e+06	1.59116889e+00	1.80040199e-05	7.26880278e-03	1.49804551e-11	5.67705332e-02
4.26869452e-01	1.19520001e-01	4.98046889e-03	1.34719589e+00	1.61447819e+05	3.00000000e+02	1.35867217e+03	5.06330517e+06	1.47892440e+00	1.79935611e-05	7.56989969e-03	1.21083686e-11	5.89314270e-02
4.25809741e-01	1.19520001e-01	4.98046889e-03	1.22117626e+00	1.44172697e+05	3.00000000e+02	1.38099417e+03	4.66368975e+06	1.41819628e+00	1.80110546e-05	8.19641876e-03	1.07515612e-11	6.28844353e-02
4.33277354e-01	1.19520001e-01	4.39453149e-03	1.36672611e+00	1.74080179e+05	3.00000000e+02	1.42748549e+03	5.83268735e+06	1.52888650e+00	1.79697376e-05	1.60905240e-02	3.03843118e-11	1.18839347e-01
4.32203412e-01	1.19520001e-01	4.39453149e-03	1.38783979e+00	1.78743224e+05	3.00000000e+02	1.39816565e+03	6.02695922e+06	1.52485841e+00	1.79684182e-05	1.71293165e-02	3.81143555e-11	1.25558840e-01
4.31131869e-01	1.19520001e-01	4.39453148e-03	1.40613890e+00	1.83425559e+05	3.00000000e+02	1.31802590e+03	6.21985315e+06	1.49048392e+00	1.79654945e-05	1.86542699e-02	4.94406458e-11	1.35117040e-01
4.30062726e-01	1.19520001e-01	4.39453149e-03	1.41256711e+00	1.86650832e+05	3.00000000e+02	1.19562556e+03	6.37721817e+06	1.42295842e+00	1.79638870e-05	2.05417713e-02	6.33896195e-11	1.46238023e-01
4.28995937e-01	1.19520001e-01	4.39453149e-03	1.39460316e+00	1.86182843e+05	3.00000000e+02	1.05033423e+03	6.43622277e+06	1.32532093e+00	1.79621537e-05	2.25434388e-02	7.46667721e-11	1.57087548e-01
4.27931518e-01	1.19520001e-01	4.39453148e-03	1.34203970e+00	1.79786331e+05	3.00000000e+02	9.25675239e+02	6.32222365e+06	1.22057508e+00	1.79613051e-05	2.41369696e-02	7.57393613e-11	1.64807701e-01
4.26869452e-01	1.19520001e-01	4.39453148e-03	1.24235585e+00	1.65021737e+05	3.00000000e+02	8.67148483e+02	5.89518167e+06	1.13646719e+00	1.79640073e-05	2.52090754e-02	6.28152432e-11	1.69061359e-01
4.25809741e-01	1.19520001e-01	4.39453149e-03	1.11431167e+00	1.46940272e+05	3.00000000e+02	9.17568153e+02	5.45279177e+06	1.10712976e+00	1.79644681e-05	2.65248757e-02	4.98127800e-11	1.74202062e-01
4.34353665e-01	1.19520001e-01	3.80859396e-03	1.21702570e+00	1.74857810e+05	3.00000000e+02	7.73907819e+02	5.75539092e+06	1.07435019e+00	1.77680190e-05	4.12415714e-02	9.56457226e-11	2.27790427e-01
4.33277354e-01	1.19520001e-01	3.80859396e-03	1.20018385e+00	1.75200986e+05	3.00000000e+02	8.41373771e+02	6.04509846e+06	1.11245417e+00	1.77675125e-05	4.21247832e-02	1.13094522e-10	2.27655244e-01
4.32203412e-01	1.19520001e-01	3.80859396e-03	1.19115338e+00	1.78606834e+05	3.00000000e+02	8.35011509e+02	6.32119488e+06	1.10625615e+00	1.77322874e-05	4.49236686e-02	1.44231516e-10	2.30698501e-01
4.31131870e-01	1.19520001e-01	3.80859396e-03	1.18473800e+00	1.82545670e+05	3.00000000e+02	7.57247991e+02	6.37475483e+06	1.05403702e+00	1.76752166e-05	4.87859235e-02	1.71992993e-10	2.34335473e-01
4.30062726e-01	1.19520001e-01	3.80859396e-03	1.17136896e+00	1.85316758e+05	3.00000000e+02	6.41551738e+02	6.28158319e+06	9.68737119e-01	1.76013972e-05	5.31683005e-02	1.97610952e-10	2.37400324e-01
4.28995937e-01	1.19520001e-01	3.80859396e-03	1.14572990e+00	1.85026978e+05	3.00000000e+02	5.14621756e+02	6.05581445e+06	8.61828191e-01	1.75248732e-05	5.72542407e-02	2.03848514e-10	2.39467221e-01
4.27931518e-01	1.19520001e-01	3.80859396e-03	1.09756320e+00	1.79694383e+05	3.00000000e+02	4.14371224e+02	5.88053713e+06	7.59409465e-01	1.74672261e-05	6.01027700e-02	1.81844783e-10	2.40507829e-01
4.26869452e-01	1.19520001e-01	3.80859396e-03	1.01331596e+00	1.66726875e+05	3.00000000e+02	3.88762345e+02	5.53546174e+06	7.07778377e-01	1.74424558e-05	6.18798921e-02	1.35831681e-10	2.40432888e-01
4.25809741e-01	1.19520001e-01	3.80859396e-03	8.91165379e-01	1.49276824e+05	3.00000000e+02	5.21553943e+02	5.56311558e+06	7.69408689e-01	1.74285826e-05	6.39316178e-02	1.17273783e-10	2.39670322e-01
4.34353665e-01	1.19520001e-01	3.22265644e-03	9.32060737e-01	1.76418249e+05	3.00000000e+02	6.17278681e+02	5.54937187e+06	8.76852422e-01	1.70147912e-05	8.42562666e-02	1.64062664e-10	2.39480577e-01
4.33277354e-01	1.19520001e-01	3.22265643e-03	9.19294761e-01	1.75849366e+05	3.00000000e+02	6.62700236e+02	5.66443842e+06	9.02698335e-01	1.70072345e-05	8.52127242e-02	1.69868896e-10	2.39051944e-01
4.32203412e-01	1.19520001e-01	3.22265643e-03	9.16594882e-01	1.78656238e+05	3.00000000e+02	6.76350069e+02	5.65847775e+06	9.11656301e-01	1.69876666e-05	8.76678171e-02	2.11996007e-10	2.38208109e-01
4.31131869e-01	1.19520001e-01	3.22265643e-03	9.16501672e-01	1.82073860e+05	3.00000000e+02	6.59435347e+02	5.73939581e+06	9.02503584e-01	1.69431514e-05	9.05298478e-02	2.63080126e-10	2.37333667e-01
4.30062726e-01	1.19520001e-01	3.22265643e-03	9.07934679e-01	1.84775805e+05	3.00000000e+02	6.28967580e+02	6.34126546e+06	8.80592987e-01	1.68793840e-05	9.29811563e-02	3.12786808e-10	2.37045716e-01
4.28995937e-01	1.19520001e-01	3.22265643e-03	8.92798457e-01	1.84795434e+05	3.00000000e+02	5.84047316e+02	6.57436666e+06	8.42785407e-01	1.68528793e-05	9.47112215e-02	3.40533429e-10	2.36543841e-01
4.27931517e-01	1.19520001e-01	3.22265643e-03	8.59822983e-01	1.80003882e+05	3.00000000e+02	5.41747765e+02	6.60744640e+06	7.96860676e-01	1.68465540e-05	9.59803170e-02	3.29844583e-10	2.36010448e-01
4.26869452e-01	1.19520001e-01	3.22265643e-03	7.92893052e-01	1.67566124e+05	3.00000000e+02	5.51639185e+02	6.33709457e+06	7.71526579e-01	1.68606515e-05	9.75556785e-02	3.03380372e-10	2.35143180e-01
4.25809741e-01	1.19520001e-01	3.22265643e-03	6.97212931e-01	1.49574022e+05	3.00000000e+02	6.86784070e+02	5.69546939e+06	8.06999628e-01	1.68659137e-05	1.00494386e-01	2.98577795e-10	2.32491444e-01
4.34353665e-01	1.19520001e-01	2.63671891e-03	7.39914030e-01	1.78190691e+05	3.00000000e+02	9.72792169e+02	6.88358924e+06	1.01014462e+00	1.65199030e-05	1.18337780e-01	4.67774037e-10	2.28443543e-01
4.33277354e-01	1.19520001e-01	2.63671891e-03	7.28563875e-01	1.76681445e+05	3.00000000e+02	1.03457714e+03	6.81565759e+06	1.03446965e+00	1.65077502e-05	1.19553928e-01	5.01213813e-10	2.27314561e-01
4.32203412e-01	1.19520001e-01	2.63671891e-03	7.27462876e-01	1.78891147e+05	3.00000000e+02	1.07956164e+03	6.75006703e+06	1.05767187e+00	1.64804312e-05	1.21714916e-01	6.10714988e-10	2.23097954e-01
4.31131870e-01	1.19520001e-01	2.63671891e-03	7.30514816e-01	1.82561643e+05	3.00000000e+02	1.09568664e+03	6.73482671e+06	1.07106429e+00	1.64298100e-05	1.24244348e-01	7.72020517e-10	2.12650802e-01
4.30062726e-01	1.19520001e-01	2.63671891e-03	7.32140229e-01	1.85527822e+05	3.00000000e+02	1.09398960e+03	6.56301761e+06	1.07586420e+00	1.63620102e-05	1.26836916e-01	9.87050954e-10	1.92802597e-01
4.28995937e-01	1.19520001e-01	2.63671891e-03	7.24735272e-01	1.86172681e+05	3.00000000e+02	1.07344978e+03	6.40445799e+06	1.06586845e+00	1.62767370e-05	1.29649046e-01	1.19632573e-09	1.67099240e-01
4.27931518e-01	1.19520001e-01	2.63671891e-03	6.99197887e-01	1.81961871e+05	3.00000000e+02	1.03963346e+03	6.09686504e+06	1.03541787e+00	1.61962663e-05	1.32897190e-01	1.30595634e-09	1.43902383e-01
4.26869452e-01	1.19520001e-01	2.63671891e-03	6.38175761e-01	1.68108697e+05	3.00000000e+02	1.02856355e+03	5.46684880e+06	9.89258771e-01	1.61089114e-05	1.37159151e-01	1.25534366e-09	1.21290029e-01
4.25809741e-01	1.19520001e-01	2.63671891e-03	5.54195859e-01	1.48544205e+05	3.00000000e+02	1.11714803e+03	4.81408251e+06	9.66632736e-01	1.60109052e-05	1.42716957e-01	1.20555166e-09	9.85314923e-02
4.24752399e-01	1.19520001e-01	2.63671891e-03	4.93333296e-01	1.34925795e+05	3.00000000e+02	1.24779893e+03	4.34616566e+06	9.70609137e-01	1.58996853e-05	1.48369855e-01	1.32300157e-09	7.89067299e-02
4.34353665e-01	1.19520001e-01	2.05078133e-03	6.37250147e-01	1.80803629e+05	3.00000000e+02	1.27850649e+03	6.04905689e+06	1.12103171e+00	1.58372192e-05	1.52155464e-01	1.34972845e-09	1.33200836e-01
4.33277354e-01	1.19520001e-01	2.05078133e-03	6.19491206e-01	1.78298104e+05	3.00000000e+02	1.33937307e+03	5.85938633e+06	1.13610463e+00	1.57703165e-05	1.55806759e-01	1.56325369e-09	1.18892506e-01
4.32203412e-01	1.19520001e-01	2.05078133e-03	6.13200107e-01	1.80208618e+05	3.00000000e+02	1.39092654e+03	5.76194305e+06	1.15778767e+00	1.56897012e-05	1.60681201e-01	2.01440566e-09	1.02244775e-01
4.31131870e-01	1.19520001e-01	2.05078133e-03	6.10569931e-01	1.83768877e+05	3.00000000e+02	1.41992466e+03	5.61823631e+06	1.17539416e+00	1.55814264e-05	1.66591423e-01	2.70123599e-09	8.42580748e-02
4.30062726e-01	1.19520001e-01	2.05078133e-03	6.04569275e-01	1.86843964e+05	3.00000000e+02	1.42885781e+03	5.42789968e+06	1.18233091e+00	1.54621145e-05	1.73582451e-01	3.55836354e-09	6.82152383e-02
4.28995937e-01	1.19520001e-01	2.05078133e-03	5.89746767e-01	1.87640494e+05	3.00000000e+02	1.41047947e+03	5.19122357e+06	1.16977511e+00	1.53357202e-05	1.81721567e-01	4.36195532e-09	5.47017462e-02
4.27931518e-01	1.19520001e-01	2.05078133e-03	5.57044266e-01	1.82851930e+05	3.00000000e+02	1.36491523e+03	4.86668515e+06	1.12852260e+00	1.51976983e-05	1.91111601e-01	4.83315253e-09	4.35888972e-02
4.26869452e-01	1.19520001e-01	2.05078133e-03	4.94705569e-01	1.67403514e+05	3.00000000e+02	1.31148133e+03	4.28179384e+06	1.05294964e+00	1.50465607e-05	2.01731879e-01	4.55610647e-09	3.46013895e-02
4.25809741e-01	1.19520001e-01	2.05078133e-03	4.23425414e-01	1.47714961e+05	3.00000000e+02	1.32681221e+03	3.70505057e+06	9.89947555e-01	1.48926296e-05	2.12744586e-01	4.01341238e-09	2.78833166e-02
4.24752400e-01	1.19520001e-01	2.05078133e-03	3.75138170e-01	1.34827987e+05	3.00000000e+02	1.37909472e+03	3.34982070e+06	9.59220215e-01	1.47490735e-05	2.23026275e-01	3.80898653e-09	2.36370194e-02
4.34353665e-01	1.19520001e-01	1.46484381e-03	5.71215464e-01	1.85348222e+05	3.00000000e+02	1.50259480e+03	5.16061352e+06	1.19484862e+00	1.52510034e-05	1.87033383e-01	2.66090856e-09	5.19538855e-02
4.33277354e-01	1.19520001e-01	1.46484381e-03	5.48173961e-01	1.81655029e+05	3.00000000e+02	1.54648937e+03	4.89563076e+06	1.19482466e+00	1.51571964e-05	1.93605774e-01	2.97466462e-09	4.34260612e-02
4.32203412e-01	1.19520001e-01	1.46484381e-03	5.34652743e-01	1.82452116e+05	3.00000000e+02	1.57855210e+03	4.72321148e+06	1.20181155e+00	1.50355518e-05	2.02296963e-01	3.62332976e-09	3.53546090e-02
4.31131870e-01	1.19520001e-01	1.46484381e-03	5.23956225e-01	1.85334324e+05	3.00000000e+02	1.59324537e+03	4.58875113e+06	1.20714528e+00	1.48874282e-05	2.13024848e-01	4.61046309e-09	2.81362623e-02
4.30062726e-01	1.19520001e-01	1.46484381e-03	5.10354277e-01	1.88123397e+05	3.00000000e+02	1.59178912e+03	4.46347505e+06	1.20495742e+00	1.47128677e-05	2.25777513e-01	5.94518658e-09	2.21114344e-02
4.28995937e-01	1.19520001e-01	1.46484381e-03	4.88388654e-01	1.88361393e+05	3.00000000e+02	1.56952271e+03	4.30454220e+06	1.18658596e+00	1.45130190e-05	2.40543240e-01	7.42902728e-09	1.73029150e-02
4.27931517e-01	1.19520001e-01	1.46484381e-03	4.51096759e-01	1.82416225e+05	3.00000000e+02	1.52968186e+03	4.07668981e+06	1.14318136e+00	1.42925810e-05	2.57059982e-01	8.59882759e-09	1.36248577e-02
4.26869452e-01	1.19520001e-01	1.46484381e-03	3.95065864e-01	1.66992202e+05	3.00000000e+02	1.47668329e+03	3.63184936e+06	1.06809462e+00	1.40656268e-05	2.74394466e-01	8.47897453e-09	1.10256066e-02
4.25809741e-01	1.19520001e-01	1.46484381e-03	3.40176178e-01	1.49396920e+05	3.00000000e+02	1.44610702e+03	3.13546647e+06	9.95500170e-01	1.38580209e-05	2.90628116e-01	7.32419258e-09	9.41449256e-03
4.24752400e-01	1.19520001e-01	1.46484381e-03	3.02018361e-01	1.37538669e+05	3.00000000e+02	1.44639414e+03	2.78546529e+06	9.51317301e-01	1.36654831e-05	3.06055000e-01	6.69664002e-09	8.34653701e-03
4.34353664e-01	1.19520001e-01	8.78906286e-04	4.70529384e-01	1.87412890e+05	3.00000000e+02	1.30379514e+03	3.46342035e+06	1.07655363e+00	1.43104328e-05	2.54953965e-01	2.94579146e-09	1.61633106e-02
4.33277354e-01	1.19520001e-01	8.78906286e-04	4.48969367e-01	1.82935982e+05	3.00000000e+02	1.33031185e+03	3.28170640e+06	1.07024351e+00	1.42034179e-05	2.63407284e-01	2.96405721e-09	1.36990663e-02
4.32203412e-01	1.19520001e-01	8.78906287e-04	4.33951241e-01	1.82727738e+05	3.00000000e+02	1.34570948e+03	3.15221959e+06	1.06977780e+00	1.40505371e-05	2.75396143e-01	3.31624544e-09	1.13498114e-02
4.31131870e-01	1.19520001e-01	8.78906287e-04	4.21479208e-01	1.84969256e+05	3.00000000e+02	1.33583804e+03	3.02955247e+06	1.06521527e+00	1.38553653e-05	2.90888672e-01	3.97626174e-09	9.26758259e-03
4.30062726e-01	1.19520001e-01	8.78906287e-04	4.06319870e-01	1.87129618e+05	3.00000000e+02	1.29991964e+03	2.88849053e+06	1.04934118e+00	1.36227865e-05	3.09822039e-01	4.91973338e-09	7.53380263e-03
4.28995937e-01	1.19520001e-01	8.78906287e-04	3.83085378e-01	1.86217849e+05	3.00000000e+02	1.23811715e+03	2.70745678e+06	1.01420980e+00	1.33564561e-05	3.32298018e-01	5.95570397e-09	6.14609337e-03