VARIABLES ="X" "Y" "Z" "rho" "press" "temp" "tau_wall" "qdot" "yplus" "muLam" "ZMean" "ZVar" "CMean" 
Zone T ="wall" I = 7342 , F = point
4.84159381e-01	1.19520001e-01	8.49609403e-03	1.70941446e+00	2.03095277e+05	3.00000000e+02	1.98356150e+03	5.23151137e+06	1.99348371e+00	1.81687152e-05	9.03742363e-04	3.57605001e-13	8.80494415e-03
4.84159381e-01	1.19520001e-01	7.91015662e-03	1.68102083e+00	2.01049549e+05	3.00000000e+02	1.86678638e+03	5.30451438e+06	1.92460636e+00	1.81043246e-05	2.55999364e-03	1.65865330e-12	2.30300647e-02
4.84159381e-01	1.19520001e-01	7.32421899e-03	1.63270011e+00	1.98008797e+05	3.00000000e+02	1.69847433e+03	5.49247755e+06	1.81841212e+00	1.80127811e-05	5.55802961e-03	4.19653423e-12	4.75286930e-02
4.84159381e-01	1.19520001e-01	6.73828157e-03	1.57075617e+00	1.94857893e+05	3.00000000e+02	1.57154705e+03	5.78537997e+06	1.72017947e+00	1.79653096e-05	9.55219248e-03	6.68399942e-12	7.91140250e-02
4.84159380e-01	1.19520001e-01	6.15234417e-03	1.50141475e+00	1.91625582e+05	3.00000000e+02	1.54788356e+03	6.20922752e+06	1.67106093e+00	1.79439306e-05	1.36092047e-02	7.91343063e-12	1.09582312e-01
4.84159380e-01	1.19520001e-01	5.56640653e-03	1.42658308e+00	1.88475609e+05	3.00000000e+02	1.63297149e+03	6.83333854e+06	1.67371283e+00	1.79368954e-05	1.72602680e-02	1.04021448e-11	1.35184829e-01
4.84159380e-01	1.19520001e-01	4.98046889e-03	1.35302680e+00	1.85438387e+05	3.00000000e+02	1.76496370e+03	7.56202243e+06	1.69495294e+00	1.79330363e-05	2.08024286e-02	1.57012622e-11	1.57907659e-01
4.84159381e-01	1.19520001e-01	9.08203143e-03	1.72543531e+00	2.05059536e+05	3.00000000e+02	2.05915744e+03	5.25687861e+06	2.03679396e+00	1.82027667e-05	2.85914462e-04	5.73963628e-14	3.48557795e-03
4.82972532e-01	1.19520001e-01	9.08203144e-03	1.73700868e+00	2.06625108e+05	3.00000000e+02	2.04096272e+03	5.27466336e+06	2.03432682e+00	1.82048955e-05	2.67494089e-04	4.94225957e-14	3.26761527e-03
4.81788292e-01	1.19520001e-01	9.08203144e-03	1.73629418e+00	2.06675901e+05	3.00000000e+02	2.02668734e+03	5.28740847e+06	2.02655689e+00	1.82069256e-05	2.48810029e-04	4.13571456e-14	3.03431992e-03
4.80606675e-01	1.19520001e-01	9.08203144e-03	1.71935532e+00	2.04710627e+05	3.00000000e+02	2.02228680e+03	5.29228258e+06	2.01424766e+00	1.82088161e-05	2.29940353e-04	3.39429024e-14	2.78669328e-03
4.79427695e-01	1.19520001e-01	9.08203144e-03	1.68545486e+00	2.00603486e+05	3.00000000e+02	2.03110749e+03	5.28547010e+06	1.99845183e+00	1.82104935e-05	2.11476712e-04	2.79644765e-14	2.53166765e-03
4.78251323e-01	1.19520001e-01	9.08203144e-03	1.63783927e+00	1.94727858e+05	3.00000000e+02	2.05428517e+03	5.26608056e+06	1.98121005e+00	1.82106676e-05	1.94158552e-04	2.38270674e-14	2.27828138e-03
4.82972532e-01	1.19520001e-01	8.49609403e-03	1.71862209e+00	2.04550415e+05	3.00000000e+02	1.97856371e+03	5.26410744e+06	1.99582575e+00	1.81732657e-05	8.67030861e-04	3.27725888e-13	8.48995593e-03
4.81788292e-01	1.19520001e-01	8.49609403e-03	1.71787367e+00	2.04619757e+05	3.00000000e+02	1.97685975e+03	5.27753724e+06	1.99392934e+00	1.81787560e-05	8.15159972e-04	2.89116842e-13	8.04152640e-03
4.80606675e-01	1.19520001e-01	8.49609403e-03	1.70391808e+00	2.03069054e+05	3.00000000e+02	1.98411490e+03	5.28834078e+06	1.98885785e+00	1.81842086e-05	7.46445969e-04	2.44310930e-13	7.43895445e-03
4.79427695e-01	1.19520001e-01	8.49609403e-03	1.67646332e+00	1.99763869e+05	3.00000000e+02	2.00319532e+03	5.29132028e+06	1.98196640e+00	1.81866527e-05	6.68738448e-04	2.03458907e-13	6.75773159e-03
4.78251323e-01	1.19520001e-01	8.49609403e-03	1.63503784e+00	1.94701286e+05	3.00000000e+02	2.03257681e+03	5.28613650e+06	1.97160139e+00	1.81868991e-05	5.89462594e-04	1.66729170e-13	5.98502237e-03
4.82972532e-01	1.19520001e-01	7.91015662e-03	1.68654575e+00	2.01863726e+05	3.00000000e+02	1.87121529e+03	5.32170681e+06	1.92961098e+00	1.81084619e-05	2.48070051e-03	1.57663318e-12	2.23347621e-02
4.81788292e-01	1.19520001e-01	7.91015663e-03	1.68732748e+00	2.02285113e+05	3.00000000e+02	1.87791476e+03	5.37371672e+06	1.93409538e+00	1.81029822e-05	2.34237247e-03	1.44556482e-12	2.11472159e-02
4.80606676e-01	1.19520001e-01	7.91015663e-03	1.67391431e+00	2.01387616e+05	3.00000000e+02	1.87799040e+03	5.45092975e+06	1.92560317e+00	1.81107689e-05	2.14660306e-03	1.20374985e-12	1.94693406e-02
4.79427695e-01	1.19520001e-01	7.91015663e-03	1.66377822e+00	1.99239190e+05	3.00000000e+02	1.91961195e+03	5.36240889e+06	1.93981104e+00	1.81211351e-05	1.91446938e-03	1.05512200e-12	1.75112222e-02
4.78251323e-01	1.19520001e-01	7.91015663e-03	1.63018896e+00	1.95207704e+05	3.00000000e+02	1.95672926e+03	5.35354643e+06	1.93628046e+00	1.81428899e-05	1.67313908e-03	8.58891737e-13	1.54382669e-02
4.82972532e-01	1.19520001e-01	7.32421899e-03	1.63552874e+00	1.99049599e+05	3.00000000e+02	1.69761595e+03	5.57189946e+06	1.81913642e+00	1.80166453e-05	5.42477718e-03	4.06833188e-12	4.64077991e-02
4.81788293e-01	1.19520001e-01	7.32421899e-03	1.64317714e+00	1.99590513e+05	3.00000000e+02	1.71604064e+03	5.54297319e+06	1.83300567e+00	1.80190775e-05	5.16214877e-03	3.95528481e-12	4.42924257e-02
4.80606676e-01	1.19520001e-01	7.32421899e-03	1.64156319e+00	1.99368501e+05	3.00000000e+02	1.74106269e+03	5.54211987e+06	1.84359272e+00	1.80368797e-05	4.78614201e-03	3.66432375e-12	4.11941922e-02
4.79427695e-01	1.19520001e-01	7.32421898e-03	1.63488081e+00	1.98320876e+05	3.00000000e+02	1.76930082e+03	5.53597634e+06	1.85355379e+00	1.80479998e-05	4.32443257e-03	3.18963938e-12	3.73717297e-02
4.78251323e-01	1.19520001e-01	7.32421899e-03	1.62716462e+00	1.96678337e+05	3.00000000e+02	1.81932193e+03	5.48096890e+06	1.87387983e+00	1.80600593e-05	3.82813153e-03	2.77233852e-12	3.33011874e-02
4.82972532e-01	1.19520001e-01	6.73828158e-03	1.57815152e+00	1.95949179e+05	3.00000000e+02	1.57406924e+03	5.81204683e+06	1.72557118e+00	1.79656846e-05	9.39973935e-03	6.93281560e-12	7.79149262e-02
4.81788293e-01	1.19520001e-01	6.73828158e-03	1.58549041e+00	1.96868493e+05	3.00000000e+02	1.58302555e+03	5.82881253e+06	1.73398821e+00	1.79709078e-05	9.06948481e-03	7.04145661e-12	7.52654531e-02
4.80606676e-01	1.19520001e-01	6.73828158e-03	1.59249532e+00	1.97487214e+05	3.00000000e+02	1.59858582e+03	5.82518987e+06	1.74583866e+00	1.79760116e-05	8.56728371e-03	6.94815639e-12	7.12983833e-02
4.79427695e-01	1.19520001e-01	6.73828157e-03	1.59864521e+00	1.97842368e+05	3.00000000e+02	1.62169854e+03	5.81032916e+06	1.76113653e+00	1.79828477e-05	7.91835460e-03	6.59789409e-12	6.61362553e-02
4.78251323e-01	1.19520001e-01	6.73828158e-03	1.60375051e+00	1.97938102e+05	3.00000000e+02	1.65352546e+03	5.78031462e+06	1.77981705e+00	1.79965338e-05	7.18774163e-03	6.09047625e-12	6.02444031e-02
4.77077573e-01	1.19520001e-01	6.73828158e-03	1.60209434e+00	1.97587410e+05	3.00000000e+02	1.69277393e+03	5.80046667e+06	1.79899383e+00	1.80054606e-05	6.46347537e-03	5.60215491e-12	5.43886194e-02
4.82972532e-01	1.19520001e-01	6.15234417e-03	1.50903468e+00	1.93001753e+05	3.00000000e+02	1.55021407e+03	6.26612912e+06	1.67651799e+00	1.79443451e-05	1.35001859e-02	8.65149557e-12	1.08741592e-01
4.81788292e-01	1.19520001e-01	6.15234417e-03	1.52009933e+00	1.94412723e+05	3.00000000e+02	1.54985310e+03	6.28237943e+06	1.68222752e+00	1.79467951e-05	1.32153940e-02	9.25216548e-12	1.06584438e-01
4.80606675e-01	1.19520001e-01	6.15234417e-03	1.53489288e+00	1.95989029e+05	3.00000000e+02	1.54802077e+03	6.27012571e+06	1.68919501e+00	1.79489076e-05	1.27502703e-02	9.64408624e-12	1.03111727e-01
4.79427695e-01	1.19520001e-01	6.15234417e-03	1.55224652e+00	1.97709205e+05	3.00000000e+02	1.54597463e+03	6.24626170e+06	1.69732098e+00	1.79517972e-05	1.21136339e-02	9.82036146e-12	9.83313144e-02
4.78251323e-01	1.19520001e-01	6.15234417e-03	1.57058936e+00	1.99269225e+05	3.00000000e+02	1.54111137e+03	6.19559144e+06	1.70405042e+00	1.79579303e-05	1.13499032e-02	9.62840785e-12	9.25063484e-02
4.77077573e-01	1.19520001e-01	6.15234417e-03	1.58482220e+00	2.00105472e+05	3.00000000e+02	1.53533320e+03	6.12434241e+06	1.70797117e+00	1.79639337e-05	1.05341353e-02	9.03846245e-12	8.62224599e-02
4.82972533e-01	1.19520001e-01	5.56640653e-03	1.43941826e+00	1.90234857e+05	3.00000000e+02	1.62024182e+03	6.84572308e+06	1.67465450e+00	1.79369496e-05	1.72048580e-02	1.09335811e-11	1.34794074e-01
4.81788292e-01	1.19520001e-01	5.56640653e-03	1.45588629e+00	1.92298642e+05	3.00000000e+02	1.60641128e+03	6.84499445e+06	1.67697264e+00	1.79372767e-05	1.69922829e-02	1.13558889e-11	1.33328186e-01
4.80606675e-01	1.19520001e-01	5.56640653e-03	1.47677021e+00	1.94894616e+05	3.00000000e+02	1.59082432e+03	6.84852438e+06	1.68066463e+00	1.79381189e-05	1.66225965e-02	1.17882908e-11	1.30764939e-01
4.79427695e-01	1.19520001e-01	5.56640653e-03	1.50156603e+00	1.97838903e+05	3.00000000e+02	1.56733914e+03	6.83954430e+06	1.68202653e+00	1.79395378e-05	1.61082420e-02	1.21739836e-11	1.27155750e-01
4.78251323e-01	1.19520001e-01	5.56640653e-03	1.52775765e+00	2.00596223e+05	3.00000000e+02	1.53350533e+03	6.79060608e+06	1.67799953e+00	1.79418998e-05	1.54808125e-02	1.22503541e-11	1.22693211e-01
4.77077573e-01	1.19520001e-01	5.56640653e-03	1.54964625e+00	2.02535999e+05	3.00000000e+02	1.49835947e+03	6.71538353e+06	1.67030124e+00	1.79440254e-05	1.47845545e-02	1.19916265e-11	1.17670632e-01
4.82972532e-01	1.19520001e-01	4.98046889e-03	1.36782771e+00	1.87790042e+05	3.00000000e+02	1.75794570e+03	7.61607210e+06	1.70083854e+00	1.79327017e-05	2.07569391e-02	1.65140284e-11	1.57680894e-01
4.81788292e-01	1.19520001e-01	4.98046889e-03	1.38811558e+00	1.90670326e+05	3.00000000e+02	1.74310892e+03	7.64681165e+06	1.70613529e+00	1.79329607e-05	2.05668916e-02	1.70513800e-11	1.56536966e-01
4.80606675e-01	1.19520001e-01	4.98046889e-03	1.41587444e+00	1.94277755e+05	3.00000000e+02	1.71288187e+03	7.64183405e+06	1.70807497e+00	1.79332719e-05	2.02460773e-02	1.72181186e-11	1.54547438e-01
4.79427695e-01	1.19520001e-01	4.98046889e-03	1.44979635e+00	1.98272304e+05	3.00000000e+02	1.66257623e+03	7.58084181e+06	1.70275810e+00	1.79341879e-05	1.98127689e-02	1.67921927e-11	1.51787941e-01
4.78251323e-01	1.19520001e-01	4.98046889e-03	1.48323963e+00	2.02015574e+05	3.00000000e+02	1.60437780e+03	7.50401230e+06	1.69175607e+00	1.79354230e-05	1.92885859e-02	1.61111506e-11	1.48375316e-01
4.77077573e-01	1.19520001e-01	4.98046889e-03	1.51102452e+00	2.04928034e+05	3.00000000e+02	1.54743275e+03	7.42701964e+06	1.67679267e+00	1.79371180e-05	1.87082949e-02	1.54053278e-11	1.44518030e-01
4.82972532e-01	1.19520001e-01	4.39453149e-03	1.30246981e+00	1.85587218e+05	3.00000000e+02	1.85493727e+03	8.33599613e+06	1.70558604e+00	1.79252490e-05	2.49511864e-02	2.76038544e-11	1.80992624e-01
4.81788293e-01	1.19520001e-01	4.39453149e-03	1.32725414e+00	1.89336654e+05	3.00000000e+02	1.84627441e+03	8.40305326e+06	1.71774436e+00	1.79249116e-05	2.46779115e-02	2.81549456e-11	1.79786877e-01
4.80606676e-01	1.19520001e-01	4.39453149e-03	1.35923807e+00	1.93949169e+05	3.00000000e+02	1.82340236e+03	8.45390596e+06	1.72747828e+00	1.79253156e-05	2.42708964e-02	2.81405943e-11	1.77805787e-01
4.79427695e-01	1.19520001e-01	4.39453148e-03	1.39605695e+00	1.98950055e+05	3.00000000e+02	1.78125456e+03	8.46349462e+06	1.73026849e+00	1.79263325e-05	2.37645564e-02	2.73920701e-11	1.75163682e-01
4.78251323e-01	1.19520001e-01	4.39453149e-03	1.43343206e+00	2.03652746e+05	3.00000000e+02	1.72246339e+03	8.42089960e+06	1.72393614e+00	1.79280382e-05	2.31933981e-02	2.59515985e-11	1.71997727e-01
4.77077573e-01	1.19520001e-01	4.39453149e-03	1.46710560e+00	2.07479412e+05	3.00000000e+02	1.65356356e+03	8.33082122e+06	1.70864688e+00	1.79299551e-05	2.25930385e-02	2.40027363e-11	1.68498166e-01
4.82972533e-01	1.19520001e-01	3.80859396e-03	1.23001310e+00	1.83785849e+05	3.00000000e+02	1.91210965e+03	9.17093212e+06	1.68566982e+00	1.78948944e-05	3.08872355e-02	5.59840647e-11	2.06037634e-01
4.81788293e-01	1.19520001e-01	3.80859396e-03	1.25917261e+00	1.88374605e+05	3.00000000e+02	1.90985148e+03	9.28501160e+06	1.70435571e+00	1.78966843e-05	3.04374350e-02	5.69515215e-11	2.04761219e-01
4.80606676e-01	1.19520001e-01	3.80859396e-03	1.29580185e+00	1.93862352e+05	3.00000000e+02	1.89184576e+03	9.37645461e+06	1.72053369e+00	1.78994367e-05	2.98265619e-02	5.63145185e-11	2.02830937e-01
4.79427695e-01	1.19520001e-01	3.80859396e-03	1.33689975e+00	1.99703190e+05	3.00000000e+02	1.85526150e+03	9.42305606e+06	1.73027704e+00	1.79030377e-05	2.90990502e-02	5.39907251e-11	2.00282242e-01
4.78251323e-01	1.19520001e-01	3.80859396e-03	1.37872332e+00	2.05270277e+05	3.00000000e+02	1.80192062e+03	9.40979422e+06	1.73130180e+00	1.79070478e-05	2.82987073e-02	5.01062968e-11	1.97171575e-01
4.77077573e-01	1.19520001e-01	3.80859396e-03	1.41769156e+00	2.09992441e+05	3.00000000e+02	1.73554050e+03	9.33157719e+06	1.72251751e+00	1.79116252e-05	2.74709570e-02	4.49565159e-11	1.93595611e-01
4.82972532e-01	1.19520001e-01	3.22265643e-03	1.14656388e+00	1.82426636e+05	3.00000000e+02	1.87701642e+03	9.89347052e+06	1.62125344e+00	1.77980588e-05	3.99819305e-02	1.22687875e-10	2.28221613e-01
4.81788293e-01	1.19520001e-01	3.22265643e-03	1.17917795e+00	1.87669943e+05	3.00000000e+02	1.87963293e+03	1.00626065e+07	1.64458487e+00	1.78057508e-05	3.92734758e-02	1.26069369e-10	2.27276551e-01
4.80606675e-01	1.19520001e-01	3.22265643e-03	1.21921464e+00	1.93848806e+05	3.00000000e+02	1.86831877e+03	1.02187040e+07	1.66633059e+00	1.78153676e-05	3.83512091e-02	1.25886261e-10	2.25938479e-01
4.79427695e-01	1.19520001e-01	3.22265643e-03	1.26377486e+00	2.00394900e+05	3.00000000e+02	1.84060331e+03	1.03349940e+07	1.68282745e+00	1.78264864e-05	3.72619611e-02	1.21757535e-10	2.24162774e-01
4.78251323e-01	1.19520001e-01	3.22265643e-03	1.30966820e+00	2.06730594e+05	3.00000000e+02	1.79724376e+03	1.03893188e+07	1.69166793e+00	1.78385439e-05	3.60638137e-02	1.13504185e-10	2.21923952e-01
4.77077573e-01	1.19520001e-01	3.22265643e-03	1.35364896e+00	2.12268715e+05	3.00000000e+02	1.73995467e+03	1.03610503e+07	1.69103884e+00	1.78508456e-05	3.48150260e-02	1.01356522e-10	2.19209522e-01
4.82972533e-01	1.19520001e-01	2.63671891e-03	1.04519592e+00	1.81436642e+05	3.00000000e+02	1.76627902e+03	1.01494892e+07	1.51949438e+00	1.75881352e-05	5.39617652e-02	2.65428677e-10	2.39711542e-01
4.81788293e-01	1.19520001e-01	2.63671891e-03	1.07900883e+00	1.87187648e+05	3.00000000e+02	1.77074812e+03	1.03976560e+07	1.54454125e+00	1.76028006e-05	5.29689366e-02	2.81805829e-10	2.39454190e-01
4.80606676e-01	1.19520001e-01	2.63671891e-03	1.12054662e+00	1.93914674e+05	3.00000000e+02	1.76137839e+03	1.06406984e+07	1.56812729e+00	1.76218041e-05	5.17027446e-02	2.92517954e-10	2.39082537e-01
4.79427695e-01	1.19520001e-01	2.63671891e-03	1.16686885e+00	2.01020815e+05	3.00000000e+02	1.73587710e+03	1.08565369e+07	1.58659806e+00	1.76438751e-05	5.01755394e-02	2.93341471e-10	2.38552914e-01
4.78251323e-01	1.19520001e-01	2.63671891e-03	1.21506946e+00	2.07971490e+05	3.00000000e+02	1.69635586e+03	1.10296660e+07	1.59833559e+00	1.76677584e-05	4.84560259e-02	2.83232957e-10	2.37843958e-01
4.77077573e-01	1.19520001e-01	2.63671891e-03	1.26255189e+00	2.14183149e+05	3.00000000e+02	1.64459361e+03	1.11139302e+07	1.60196907e+00	1.76925396e-05	4.66221428e-02	2.60997982e-10	2.36886790e-01
4.82972532e-01	1.19520001e-01	2.05078133e-03	9.26503171e-01	1.80802373e+05	3.00000000e+02	1.59418971e+03	9.68423969e+06	1.38812752e+00	1.72208457e-05	7.49308342e-02	4.76648341e-10	2.40512412e-01
4.81788293e-01	1.19520001e-01	2.05078133e-03	9.58984075e-01	1.86802521e+05	3.00000000e+02	1.59605516e+03	9.94098650e+06	1.41117029e+00	1.72441029e-05	7.37578754e-02	5.29032548e-10	2.40614836e-01
4.80606675e-01	1.19520001e-01	2.05078133e-03	9.98816572e-01	1.93835919e+05	3.00000000e+02	1.58494219e+03	1.01947193e+07	1.43303155e+00	1.72696770e-05	7.22858794e-02	5.82255724e-10	2.40833669e-01
4.79427695e-01	1.19520001e-01	2.05078133e-03	1.04335949e+00	2.01327585e+05	3.00000000e+02	1.55658829e+03	1.04921431e+07	1.44912199e+00	1.72977374e-05	7.04350554e-02	6.23852450e-10	2.41147905e-01
4.78251323e-01	1.19520001e-01	2.05078133e-03	1.09059616e+00	2.08707324e+05	3.00000000e+02	1.51139032e+03	1.07555263e+07	1.45697644e+00	1.73323781e-05	6.82556606e-02	6.45560830e-10	2.41435704e-01
4.77077574e-01	1.19520001e-01	2.05078133e-03	1.13745443e+00	2.15388405e+05	3.00000000e+02	1.45233620e+03	1.09703141e+07	1.45518488e+00	1.73729190e-05	6.58241858e-02	6.37511671e-10	2.41652418e-01
4.82972533e-01	1.19520001e-01	1.46484381e-03	7.99918785e-01	1.80200276e+05	3.00000000e+02	1.39008107e+03	8.63566420e+06	1.24423318e+00	1.66698471e-05	1.03882909e-01	5.51223705e-10	2.35367547e-01
4.81788293e-01	1.19520001e-01	1.46484381e-03	8.26660242e-01	1.86210572e+05	3.00000000e+02	1.38635615e+03	8.92536034e+06	1.26183895e+00	1.66873504e-05	1.02969951e-01	6.34034208e-10	2.35479221e-01
4.80606675e-01	1.19520001e-01	1.46484381e-03	8.60074458e-01	1.93553952e+05	3.00000000e+02	1.36869350e+03	9.25821829e+06	1.27689686e+00	1.67130492e-05	1.01755755e-01	7.30497646e-10	2.35725350e-01
4.79427695e-01	1.19520001e-01	1.46484381e-03	8.97251878e-01	2.01369167e+05	3.00000000e+02	1.33620902e+03	9.55459746e+06	1.28595300e+00	1.67478737e-05	1.00128132e-01	8.47958501e-10	2.36330986e-01
4.78251323e-01	1.19520001e-01	1.46484381e-03	9.37746381e-01	2.08990066e+05	3.00000000e+02	1.28968586e+03	9.73625566e+06	1.28848730e+00	1.67878434e-05	9.80690119e-02	9.64579270e-10	2.36996905e-01
4.77077573e-01	1.19520001e-01	1.46484381e-03	9.79814250e-01	2.15888388e+05	3.00000000e+02	1.22683101e+03	9.89084050e+06	1.28153874e+00	1.68276276e-05	9.55908421e-02	1.04815986e-09	2.37502366e-01
4.82972532e-01	1.19520001e-01	8.78906286e-04	6.85195572e-01	1.80345799e+05	3.00000000e+02	1.23051673e+03	7.79988499e+06	1.11716208e+00	1.61668434e-05	1.34835447e-01	3.54810836e-10	2.26265102e-01
4.81788293e-01	1.19520001e-01	8.78906287e-04	7.06267094e-01	1.86343204e+05	3.00000000e+02	1.22989209e+03	7.77297330e+06	1.13283711e+00	1.61823246e-05	1.34975026e-01	4.29309244e-10	2.25865402e-01
4.80606675e-01	1.19520001e-01	8.78906286e-04	7.31669844e-01	1.93605093e+05	3.00000000e+02	1.21722109e+03	7.89496501e+06	1.14632508e+00	1.61929100e-05	1.34887681e-01	5.22638838e-10	2.25567073e-01
4.79427695e-01	1.19520001e-01	8.78906286e-04	7.59421670e-01	2.01494744e+05	3.00000000e+02	1.19050006e+03	8.08774792e+06	1.15421449e+00	1.62035460e-05	1.34576736e-01	6.44927398e-10	2.25312506e-01
4.78251323e-01	1.19520001e-01	8.78906286e-04	7.88747781e-01	2.09348447e+05	3.00000000e+02	1.14846726e+03	8.21508866e+06	1.15405537e+00	1.62215415e-05	1.33961307e-01	7.90700335e-10	2.25142698e-01
4.77077574e-01	1.19520001e-01	8.78906286e-04	8.18388785e-01	2.16538811e+05	3.00000000e+02	1.09162631e+03	8.26449916e+06	1.14442557e+00	1.62449981e-05	1.32954456e-01	9.37884383e-10	2.25126255e-01
4.82972533e-01	1.19520001e-01	2.92968761e-04	6.29575916e-01	1.79862072e+05	3.00000000e+02	1.16875653e+03	5.91184978e+06	1.06829566e+00	1.57937406e-05	1.57601863e-01	1.39617452e-10	2.10533425e-01
4.81788293e-01	1.19520001e-01	2.92968761e-04	6.46058901e-01	1.86096017e+05	3.00000000e+02	1.16940903e+03	6.00478261e+06	1.08419922e+00	1.57688700e-05	1.58895101e-01	1.68861406e-10	2.06344829e-01
4.80606676e-01	1.19520001e-01	2.92968761e-04	6.66001545e-01	1.93502103e+05	3.00000000e+02	1.16001266e+03	6.10698513e+06	1.09827837e+00	1.57415299e-05	1.60247893e-01	2.05982103e-10	2.01058979e-01
4.79427695e-01	1.19520001e-01	2.92968761e-04	6.87413349e-01	2.01472950e+05	3.00000000e+02	1.13538941e+03	6.19165656e+06	1.10604624e+00	1.57108073e-05	1.61687697e-01	2.51400765e-10	1.94386670e-01
4.78251323e-01	1.19520001e-01	2.92968761e-04	7.08557395e-01	2.09425540e+05	3.00000000e+02	1.09643327e+03	6.23104760e+06	1.10589158e+00	1.56767651e-05	1.63217634e-01	3.02997817e-10	1.86087465e-01
4.77077573e-01	1.19520001e-01	2.92968761e-04	7.27768481e-01	2.16784790e+05	3.00000000e+02	1.04522961e+03	6.20527903e+06	1.09685833e+00	1.56402007e-05	1.64834508e-01	3.55357058e-10	1.75987383e-01
4.77077574e-01	1.19520001e-01	9.08203144e-03	1.58556802e+00	1.88263512e+05	3.00000000e+02	2.08514994e+03	5.24175786e+06	1.96394244e+00	1.82105353e-05	1.78688769e-04	2.14127149e-14	2.05974360e-03
4.75906431e-01	1.19520001e-01	9.08203144e-03	1.52985235e+00	1.81261226e+05	3.00000000e+02	2.12365555e+03	5.20144281e+06	1.94687022e+00	1.82104291e-05	1.64888494e-04	2.02892161e-14	1.87197096e-03
4.74737868e-01	1.19520001e-01	9.08203144e-03	1.48003347e+00	1.75017115e+05	3.00000000e+02	2.17015311e+03	5.16456279e+06	1.93576744e+00	1.82103444e-05	1.52804189e-04	2.00558029e-14	1.71175423e-03
4.73571912e-01	1.19520001e-01	9.08203143e-03	1.44935068e+00	1.71178661e+05	3.00000000e+02	2.20913710e+03	5.14160127e+06	1.93273307e+00	1.82102781e-05	1.42548335e-04	2.02437605e-14	1.57768498e-03
4.72408548e-01	1.19520001e-01	9.08203144e-03	1.43859947e+00	1.69900603e+05	3.00000000e+02	2.23747333e+03	5.14144972e+06	1.93786708e+00	1.82102237e-05	1.33456843e-04	2.06475650e-14	1.46130197e-03
4.71247747e-01	1.19520001e-01	9.08203144e-03	1.44418046e+00	1.70801048e+05	3.00000000e+02	2.26230050e+03	5.16970155e+06	1.95236996e+00	1.82101762e-05	1.24871438e-04	2.14461032e-14	1.35410752e-03
4.70089525e-01	1.19520001e-01	9.08203144e-03	1.46741449e+00	1.74158602e+05	3.00000000e+02	2.28946552e+03	5.23883437e+06	1.97979727e+00	1.82101331e-05	1.16493438e-04	2.30129661e-14	1.25194628e-03
4.77077574e-01	1.19520001e-01	8.49609403e-03	1.58979235e+00	1.89319709e+05	3.00000000e+02	2.06701249e+03	5.29471393e+06	1.96076331e+00	1.81847345e-05	5.19280095e-04	1.40066037e-13	5.27510478e-03
4.75906432e-01	1.19520001e-01	8.49609403e-03	1.54300120e+00	1.83743581e+05	3.00000000e+02	2.10171344e+03	5.29902275e+06	1.94790539e+00	1.81841250e-05	4.61048516e-04	1.22187787e-13	4.70536605e-03
4.74737868e-01	1.19520001e-01	8.49609403e-03	1.49754351e+00	1.77959695e+05	3.00000000e+02	2.14806238e+03	5.25590332e+06	1.93940122e+00	1.81901337e-05	4.17130948e-04	1.15008189e-13	4.31131781e-03
4.73571911e-01	1.19520001e-01	8.49609403e-03	1.46255863e+00	1.73471729e+05	3.00000000e+02	2.19091666e+03	5.21706791e+06	1.93518914e+00	1.81943497e-05	3.88490744e-04	1.13686627e-13	4.03610564e-03
4.72408548e-01	1.19520001e-01	8.49609403e-03	1.44776244e+00	1.71624271e+05	3.00000000e+02	2.22502317e+03	5.20575554e+06	1.94004505e+00	1.81967778e-05	3.71521485e-04	1.17738215e-13	3.86369164e-03
4.71247748e-01	1.19520001e-01	8.49609403e-03	1.45214900e+00	1.72357395e+05	3.00000000e+02	2.25254633e+03	5.22953343e+06	1.95479496e+00	1.81983340e-05	3.60693574e-04	1.26456078e-13	3.74597930e-03
4.70089525e-01	1.19520001e-01	8.49609403e-03	1.47607555e+00	1.75755117e+05	3.00000000e+02	2.27561390e+03	5.29165307e+06	1.98078709e+00	1.81993623e-05	3.53768172e-04	1.41192674e-13	3.66421871e-03
4.77077573e-01	1.19520001e-01	7.91015662e-03	1.60228385e+00	1.91440921e+05	3.00000000e+02	2.00779017e+03	5.33252290e+06	1.94471505e+00	1.81410867e-05	1.45016773e-03	7.39547799e-13	1.35518414e-02
4.75906431e-01	1.19520001e-01	7.91015662e-03	1.56275037e+00	1.87623325e+05	3.00000000e+02	2.02375743e+03	5.43842842e+06	1.92777072e+00	1.81450863e-05	1.26815727e-03	6.12187466e-13	1.19608425e-02
4.74737867e-01	1.19520001e-01	7.91015662e-03	1.52533081e+00	1.81980548e+05	3.00000000e+02	2.06922259e+03	5.30156510e+06	1.92384459e+00	1.81637714e-05	1.13821053e-03	5.71623799e-13	1.08545030e-02
4.73571911e-01	1.19520001e-01	7.91015662e-03	1.48498929e+00	1.76836852e+05	3.00000000e+02	2.11742224e+03	5.26752282e+06	1.91980644e+00	1.81676326e-05	1.05484367e-03	5.59986566e-13	1.00716079e-02
4.72408548e-01	1.19520001e-01	7.91015663e-03	1.46290159e+00	1.74163006e+05	3.00000000e+02	2.15572105e+03	5.26571054e+06	1.92262636e+00	1.81676741e-05	1.01635661e-03	5.85867530e-13	9.69046629e-03
4.71247748e-01	1.19520001e-01	7.91015663e-03	1.46348193e+00	1.74411012e+05	3.00000000e+02	2.18277756e+03	5.28625024e+06	1.93500160e+00	1.81680149e-05	1.00875237e-03	6.48823467e-13	9.59192103e-03
4.70089525e-01	1.19520001e-01	7.91015662e-03	1.48574024e+00	1.77536585e+05	3.00000000e+02	2.19800309e+03	5.33779701e+06	1.95641889e+00	1.81682932e-05	1.02355810e-03	7.56671000e-13	9.69657264e-03
4.77077573e-01	1.19520001e-01	7.32421899e-03	1.61156402e+00	1.94711207e+05	3.00000000e+02	1.86838415e+03	5.48528757e+06	1.88804677e+00	1.80773391e-05	3.35615909e-03	2.45357780e-12	2.93902930e-02
4.75906431e-01	1.19520001e-01	7.32421899e-03	1.58424514e+00	1.91313204e+05	3.00000000e+02	1.89733047e+03	5.48635365e+06	1.88497709e+00	1.80911840e-05	2.96581678e-03	2.12917543e-12	2.61311093e-02
4.74737867e-01	1.19520001e-01	7.32421898e-03	1.55071320e+00	1.87468656e+05	3.00000000e+02	1.92598043e+03	5.52459745e+06	1.87844124e+00	1.80960775e-05	2.67603595e-03	1.93605959e-12	2.36533543e-02
4.73571911e-01	1.19520001e-01	7.32421898e-03	1.51659756e+00	1.81927810e+05	3.00000000e+02	1.96885430e+03	5.36159419e+06	1.87660453e+00	1.81117156e-05	2.49116842e-03	1.91315500e-12	2.21513499e-02
4.72408548e-01	1.19520001e-01	7.32421898e-03	1.48499446e+00	1.78090242e+05	3.00000000e+02	2.00875034e+03	5.36605610e+06	1.87591017e+00	1.81093868e-05	2.41055850e-03	1.98959805e-12	2.14513732e-02
4.71247748e-01	1.19520001e-01	7.32421898e-03	1.47715835e+00	1.77301718e+05	3.00000000e+02	2.03706798e+03	5.38032561e+06	1.88396251e+00	1.81106658e-05	2.42622793e-03	2.23672229e-12	2.15271533e-02
4.70089525e-01	1.19520001e-01	7.32421899e-03	1.49389453e+00	1.79752718e+05	3.00000000e+02	2.05098676e+03	5.41873870e+06	1.90072777e+00	1.81138957e-05	2.51689194e-03	2.70466633e-12	2.22091237e-02
4.75906431e-01	1.19520001e-01	6.73828158e-03	1.59083748e+00	1.95960388e+05	3.00000000e+02	1.73101736e+03	5.79398093e+06	1.81119393e+00	1.80214217e-05	5.82673020e-03	5.18563081e-12	4.92295421e-02
4.74737867e-01	1.19520001e-01	6.73828157e-03	1.56954358e+00	1.92619656e+05	3.00000000e+02	1.75621123e+03	5.73247908e+06	1.81104061e+00	1.80317243e-05	5.32312412e-03	4.76682559e-12	4.50983633e-02
4.73571911e-01	1.19520001e-01	6.73828157e-03	1.53585226e+00	1.87970712e+05	3.00000000e+02	1.79033312e+03	5.69270734e+06	1.80828808e+00	1.80370043e-05	4.99724074e-03	4.60841615e-12	4.23819502e-02
4.72408548e-01	1.19520001e-01	6.73828158e-03	1.50328911e+00	1.83107883e+05	3.00000000e+02	1.83343489e+03	5.58703253e+06	1.80970845e+00	1.80441227e-05	4.86033135e-03	4.85806220e-12	4.13309533e-02
4.71247748e-01	1.19520001e-01	6.73828158e-03	1.48700164e+00	1.81289267e+05	3.00000000e+02	1.87228139e+03	5.60436506e+06	1.81892395e+00	1.80433481e-05	4.92204547e-03	5.61967804e-12	4.17506207e-02
4.70089525e-01	1.19520001e-01	6.73828158e-03	1.48837555e+00	1.82499681e+05	3.00000000e+02	1.87406388e+03	5.72219100e+06	1.82177616e+00	1.80319971e-05	5.16421371e-03	6.77887307e-12	4.37155566e-02
4.68933896e-01	1.19520001e-01	6.73828158e-03	1.51566997e+00	1.86574474e+05	3.00000000e+02	1.84753682e+03	5.78688184e+06	1.82592913e+00	1.80262480e-05	5.59479771e-03	8.59250928e-12	4.70713536e-02
4.75906431e-01	1.19520001e-01	6.15234417e-03	1.59014319e+00	1.99736594e+05	3.00000000e+02	1.53523145e+03	6.04186517e+06	1.71009088e+00	1.79711654e-05	9.75034141e-03	8.36142929e-12	8.00954667e-02
4.74737868e-01	1.19520001e-01	6.15234417e-03	1.58025105e+00	1.97764358e+05	3.00000000e+02	1.54918042e+03	5.98830156e+06	1.71154099e+00	1.79811359e-05	9.08028859e-03	7.92544071e-12	7.47622641e-02
4.73571911e-01	1.19520001e-01	6.15234417e-03	1.55201924e+00	1.93729818e+05	3.00000000e+02	1.57891257e+03	5.94957067e+06	1.71182584e+00	1.79869861e-05	8.61264218e-03	7.79845079e-12	7.10222853e-02
4.72408548e-01	1.19520001e-01	6.15234417e-03	1.51564739e+00	1.88869855e+05	3.00000000e+02	1.62092293e+03	5.91853541e+06	1.71371090e+00	1.79900800e-05	8.41815945e-03	8.13141335e-12	6.94070515e-02
4.71247748e-01	1.19520001e-01	6.15234417e-03	1.48894734e+00	1.85563954e+05	3.00000000e+02	1.65550769e+03	5.91060106e+06	1.71650440e+00	1.79908107e-05	8.53706348e-03	9.02110226e-12	7.02339864e-02
4.70089525e-01	1.19520001e-01	6.15234417e-03	1.48163371e+00	1.85257095e+05	3.00000000e+02	1.66161413e+03	5.95960787e+06	1.71577880e+00	1.79872430e-05	8.98653329e-03	1.04798061e-11	7.36594313e-02
4.68933896e-01	1.19520001e-01	6.15234417e-03	1.49390092e+00	1.87985395e+05	3.00000000e+02	1.63373301e+03	6.06344077e+06	1.70888414e+00	1.79816361e-05	9.75650494e-03	1.25744212e-11	7.95099353e-02
4.75906431e-01	1.19520001e-01	5.56640653e-03	1.56293804e+00	2.03299118e+05	3.00000000e+02	1.46952439e+03	6.63610474e+06	1.66084437e+00	1.79481928e-05	1.40761637e-02	1.16328298e-11	1.12450938e-01
4.74737868e-01	1.19520001e-01	5.56640653e-03	1.56492490e+00	2.02415741e+05	3.00000000e+02	1.44434616e+03	6.53110657e+06	1.64732565e+00	1.79511932e-05	1.34348604e-02	1.10124754e-11	1.07670806e-01
4.73571911e-01	1.19520001e-01	5.56640653e-03	1.55064597e+00	1.99346898e+05	3.00000000e+02	1.43137625e+03	6.40531363e+06	1.63203932e+00	1.79553137e-05	1.29554985e-02	1.02594273e-11	1.03999052e-01
4.72408548e-01	1.19520001e-01	5.56640653e-03	1.52086997e+00	1.94772770e+05	3.00000000e+02	1.44467941e+03	6.31948526e+06	1.62346582e+00	1.79588705e-05	1.27474393e-02	9.98463464e-12	1.02297640e-01
4.71247747e-01	1.19520001e-01	5.56640653e-03	1.48486422e+00	1.90463890e+05	3.00000000e+02	1.48161020e+03	6.34411654e+06	1.62452041e+00	1.79587276e-05	1.29162728e-02	1.05755890e-11	1.03424889e-01
4.70089525e-01	1.19520001e-01	5.56640653e-03	1.46084917e+00	1.88323546e+05	3.00000000e+02	1.50739134e+03	6.42643943e+06	1.62537152e+00	1.79578126e-05	1.35198166e-02	1.17996728e-11	1.07706469e-01
4.75906431e-01	1.19520001e-01	4.98046889e-03	1.53097343e+00	2.06649661e+05	3.00000000e+02	1.49167717e+03	7.33646270e+06	1.65698551e+00	1.79387808e-05	1.81238091e-02	1.46256192e-11	1.40572369e-01
4.74737868e-01	1.19520001e-01	4.98046889e-03	1.54034920e+00	2.06730234e+05	3.00000000e+02	1.43947214e+03	7.21571040e+06	1.63255910e+00	1.79404238e-05	1.76005657e-02	1.35390532e-11	1.36971761e-01
4.73571911e-01	1.19520001e-01	4.98046889e-03	1.53278554e+00	2.04716445e+05	3.00000000e+02	1.40472568e+03	7.10914953e+06	1.60858673e+00	1.79424754e-05	1.72129166e-02	1.25783358e-11	1.34222869e-01
4.72408548e-01	1.19520001e-01	4.98046889e-03	1.50845918e+00	2.00783829e+05	3.00000000e+02	1.39293076e+03	7.02414407e+06	1.58894739e+00	1.79437172e-05	1.70636521e-02	1.19579131e-11	1.33054280e-01
4.71247748e-01	1.19520001e-01	4.98046889e-03	1.47257480e+00	1.95822713e+05	3.00000000e+02	1.40613725e+03	6.98065497e+06	1.57719885e+00	1.79455375e-05	1.72658945e-02	1.18620097e-11	1.34235254e-01