VARIABLES ="X" "Y" "Z" "rho" "press" "temp" "tau_wall" "qdot" "yplus" "muLam" "ZMean" "ZVar" "CMean" 
Zone T ="wall" I = 7342 , F = point
4.22644735e-01	1.19520001e-01	3.22265644e-03	1.49123394e+00	4.16587567e+05	3.00000000e+02	-1.22810230e+02	1.11414978e+07	8.26438676e-01	1.01852083e-05	1.10915371e-01	3.34774699e-08	2.34134364e-01
4.23697397e-01	1.19520001e-01	2.63671891e-03	1.35651454e+00	4.18754081e+05	3.00000000e+02	-8.76605438e+01	1.17609630e+07	6.79980265e-01	9.97489614e-06	1.29320340e-01	4.13446777e-08	2.29693667e-01
4.22644734e-01	1.19520001e-01	2.63671891e-03	1.34557149e+00	4.16843162e+05	3.00000000e+02	-9.30879105e+01	1.12914278e+07	6.99680753e-01	9.94925328e-06	1.32243679e-01	4.10659425e-08	2.29004085e-01
4.23697397e-01	1.19520001e-01	2.05078133e-03	1.22634669e+00	4.19381531e+05	3.00000000e+02	-6.26264613e+01	1.23766178e+07	5.58851709e-01	9.75392405e-06	1.49600266e-01	4.93773876e-08	2.24587246e-01
4.22644735e-01	1.19520001e-01	2.05078133e-03	1.21603095e+00	4.17102805e+05	3.00000000e+02	-6.89860386e+01	1.21626738e+07	5.85142725e-01	9.73602078e-06	1.51466214e-01	4.81079706e-08	2.24121018e-01
4.23697397e-01	1.19520001e-01	1.46484381e-03	1.10890844e+00	4.20388740e+05	3.00000000e+02	-3.72097300e+01	1.31585410e+07	4.19310020e-01	9.52864719e-06	1.71018807e-01	5.73096054e-08	2.18799743e-01
4.22644735e-01	1.19520001e-01	1.46484381e-03	1.11760246e+00	4.17748805e+05	3.00000000e+02	-3.44171167e+01	1.24664333e+07	4.04989801e-01	9.52526823e-06	1.71327504e-01	5.26855055e-08	2.18671589e-01
4.23697397e-01	1.19520001e-01	8.78906286e-04	9.82410368e-01	4.21917411e+05	3.00000000e+02	7.93043764e+01	1.28836079e+07	5.98456485e-01	9.17387574e-06	2.07245660e-01	1.11564768e-07	2.05646807e-01
4.22644735e-01	1.19520001e-01	8.78906286e-04	1.00816996e+00	4.17651469e+05	3.00000000e+02	6.74645242e+01	1.15661106e+07	5.57638524e-01	9.19903400e-06	2.04752494e-01	9.45326897e-08	2.06658903e-01
4.23697397e-01	1.19520001e-01	2.92968761e-04	7.40165109e-01	4.20504493e+05	3.00000000e+02	2.16360400e+02	8.90918158e+06	9.83216766e-01	8.00560764e-06	3.43498534e-01	9.74572281e-07	1.35907593e-01
4.22644734e-01	1.19520001e-01	2.92968761e-04	7.28366592e-01	4.17564926e+05	3.00000000e+02	2.10467722e+02	7.81976378e+06	9.73453198e-01	7.91121283e-06	3.57081881e-01	8.38367681e-07	1.28898015e-01
4.45249379e-01	1.19520001e-01	9.08203144e-03	2.85602917e+00	4.41600597e+05	3.00000000e+02	4.28690309e+02	6.84206239e+06	1.97444688e+00	1.10229562e-05	7.03287374e-03	1.99813175e-10	6.11100392e-02
4.44148869e-01	1.19520001e-01	9.08203144e-03	3.00000157e+00	4.40996127e+05	3.00000000e+02	4.24151040e+02	6.02267852e+06	2.01286978e+00	1.10228961e-05	6.63697588e-03	2.37339127e-10	5.80034143e-02
4.43050816e-01	1.19520001e-01	9.08203144e-03	2.94340411e+00	4.44786288e+05	3.00000000e+02	3.92735144e+02	6.47645403e+06	1.91888966e+00	1.10208530e-05	6.26352523e-03	1.99934433e-10	5.50431050e-02
4.41955209e-01	1.19520001e-01	9.08203144e-03	3.13874555e+00	4.46324649e+05	3.00000000e+02	3.93201722e+02	5.49865171e+06	1.98021803e+00	1.10347661e-05	5.96206205e-03	2.00466240e-10	5.26899547e-02
4.40862015e-01	1.19520001e-01	9.08203144e-03	3.24960205e+00	4.47619138e+05	3.00000000e+02	3.94836898e+02	5.03417521e+06	2.01947062e+00	1.10325728e-05	5.71390593e-03	1.91891206e-10	5.07103194e-02
4.39771250e-01	1.19520001e-01	9.08203144e-03	3.15494791e+00	4.48205967e+05	3.00000000e+02	3.89179482e+02	5.51557519e+06	1.97710052e+00	1.10238349e-05	5.52196492e-03	1.58972026e-10	4.91343965e-02
4.38682899e-01	1.19520001e-01	9.08203144e-03	3.12898273e+00	4.50945688e+05	3.00000000e+02	3.84380975e+02	5.73085368e+06	1.95619510e+00	1.10270855e-05	5.37579762e-03	1.32529065e-10	4.79429359e-02
4.37596962e-01	1.19520001e-01	9.08203144e-03	3.14729023e+00	4.50872253e+05	3.00000000e+02	3.85922294e+02	5.63014648e+06	1.96481641e+00	1.10328252e-05	5.25592678e-03	1.26725532e-10	4.69702323e-02
4.36513454e-01	1.19520001e-01	9.08203144e-03	3.20640945e+00	4.49315214e+05	3.00000000e+02	4.05071393e+02	5.28573665e+06	2.03040642e+00	1.10403460e-05	5.15107738e-03	1.25818254e-10	4.61122798e-02
4.35432360e-01	1.19520001e-01	9.08203144e-03	3.24855497e+00	4.47620134e+05	3.00000000e+02	4.20708487e+02	5.03227013e+06	2.08185829e+00	1.10452352e-05	5.05348756e-03	1.30042229e-10	4.53004257e-02
4.34353665e-01	1.19520001e-01	9.08203144e-03	3.27342866e+00	4.46407694e+05	3.00000000e+02	4.33000180e+02	4.88158358e+06	2.11964519e+00	1.10477209e-05	4.95748250e-03	1.38336679e-10	4.44943384e-02
4.33277353e-01	1.19520001e-01	9.08203144e-03	3.29135429e+00	4.44595828e+05	3.00000000e+02	4.43334455e+02	4.74845605e+06	2.15083128e+00	1.10468155e-05	4.85519393e-03	1.50815054e-10	4.36289260e-02
4.32203412e-01	1.19520001e-01	9.08203144e-03	3.26374342e+00	4.42723505e+05	3.00000000e+02	4.52836823e+02	4.81871251e+06	2.16543240e+00	1.10426836e-05	4.73490031e-03	1.58832897e-10	4.26016074e-02
4.31131870e-01	1.19520001e-01	9.08203144e-03	3.12204592e+00	4.39730128e+05	3.00000000e+02	4.48928403e+02	5.38307610e+06	2.11007957e+00	1.10356962e-05	4.58545903e-03	1.58778032e-10	4.13383352e-02
4.30062726e-01	1.19520001e-01	9.08203143e-03	3.05222642e+00	4.39017335e+05	3.00000000e+02	4.47606526e+02	5.69300206e+06	2.08255803e+00	1.10395114e-05	4.41033682e-03	1.54523681e-10	3.99193823e-02
4.28995937e-01	1.19520001e-01	9.08203144e-03	3.13327103e+00	4.35840137e+05	3.00000000e+02	4.63626532e+02	5.17321250e+06	2.14470851e+00	1.10536379e-05	4.21576467e-03	1.61971768e-10	3.83756876e-02
4.27931517e-01	1.19520001e-01	9.08203144e-03	3.22786621e+00	4.32188035e+05	3.00000000e+02	4.81142788e+02	4.62409250e+06	2.21606311e+00	1.10612196e-05	3.99826107e-03	1.82678967e-10	3.66413879e-02
4.26869452e-01	1.19520001e-01	9.08203144e-03	3.21533391e+00	4.27703518e+05	3.00000000e+02	4.82054765e+02	4.55349743e+06	2.21529278e+00	1.10540260e-05	3.76456316e-03	1.78254503e-10	3.47139296e-02
4.25809741e-01	1.19520001e-01	9.08203144e-03	3.04741417e+00	4.27236308e+05	3.00000000e+02	4.57113418e+02	5.31565005e+06	2.10122211e+00	1.10483176e-05	3.53971560e-03	1.48930342e-10	3.28729766e-02
4.24752399e-01	1.19520001e-01	9.08203143e-03	3.09016372e+00	4.25547308e+05	3.00000000e+02	4.46074074e+02	5.03681707e+06	2.08774409e+00	1.10613302e-05	3.34732751e-03	1.42963717e-10	3.13358783e-02
4.23697397e-01	1.19520001e-01	9.08203144e-03	3.18729297e+00	4.22501611e+05	3.00000000e+02	4.55392601e+02	4.49058754e+06	2.13990196e+00	1.10738972e-05	3.17992065e-03	1.59746956e-10	2.99799774e-02
4.45249379e-01	1.19520001e-01	8.49609403e-03	2.49463425e+00	4.39521358e+05	3.00000000e+02	5.27030383e+02	9.31438004e+06	2.04903996e+00	1.10068037e-05	1.19701909e-02	1.09081055e-10	9.84115272e-02
4.44148869e-01	1.19520001e-01	8.49609403e-03	2.51780648e+00	4.40951374e+05	3.00000000e+02	4.99052172e+02	9.18274636e+06	2.00256994e+00	1.10099879e-05	1.16617647e-02	1.20635104e-10	9.60613240e-02
4.43050816e-01	1.19520001e-01	8.49609403e-03	2.54072095e+00	4.42821013e+05	3.00000000e+02	4.67784784e+02	9.08627075e+06	1.94826519e+00	1.10063633e-05	1.13188882e-02	1.37594178e-10	9.35660453e-02
4.41955209e-01	1.19520001e-01	8.49609403e-03	2.57411268e+00	4.45088573e+05	3.00000000e+02	4.36669130e+02	8.91880954e+06	1.89421011e+00	1.10091111e-05	1.09564473e-02	1.55281357e-10	9.06838664e-02
4.40862014e-01	1.19520001e-01	8.49609403e-03	2.63519895e+00	4.47304167e+05	3.00000000e+02	4.10760150e+02	8.55029309e+06	1.85844325e+00	1.10113847e-05	1.06093340e-02	1.76195939e-10	8.81772224e-02
4.39771250e-01	1.19520001e-01	8.49609403e-03	2.65259724e+00	4.48534268e+05	3.00000000e+02	3.91799937e+02	8.47805160e+06	1.82156007e+00	1.10081598e-05	1.02797845e-02	1.95646502e-10	8.56013690e-02
4.38682898e-01	1.19520001e-01	8.49609403e-03	2.65864110e+00	4.49958649e+05	3.00000000e+02	3.73833338e+02	8.48742646e+06	1.78077652e+00	1.10115850e-05	9.98249966e-03	2.11561418e-10	8.32551902e-02
4.37596962e-01	1.19520001e-01	8.49609403e-03	2.71702596e+00	4.48883152e+05	3.00000000e+02	3.76690137e+02	8.02305680e+06	1.80640815e+00	1.10157360e-05	9.71583282e-03	2.45124419e-10	8.11918155e-02
4.36513453e-01	1.19520001e-01	8.49609403e-03	2.71385548e+00	4.46810876e+05	3.00000000e+02	3.75536563e+02	7.96449102e+06	1.80323534e+00	1.10117780e-05	9.47743047e-03	2.76525433e-10	7.92872909e-02
4.35432360e-01	1.19520001e-01	8.49609403e-03	2.70081129e+00	4.46368463e+05	3.00000000e+02	3.77575798e+02	8.03112650e+06	1.80369696e+00	1.10122486e-05	9.27777181e-03	2.95278541e-10	7.76570984e-02
4.34353664e-01	1.19520001e-01	8.49609403e-03	2.67360180e+00	4.45095311e+05	3.00000000e+02	3.71211534e+02	8.16114948e+06	1.77899377e+00	1.10147603e-05	9.12435074e-03	3.25811739e-10	7.63668923e-02
4.33277353e-01	1.19520001e-01	8.49609403e-03	2.68498851e+00	4.45655525e+05	3.00000000e+02	3.77059349e+02	8.09473202e+06	1.79606466e+00	1.10190585e-05	9.01873087e-03	3.52945655e-10	7.54483205e-02
4.32203412e-01	1.19520001e-01	8.49609403e-03	2.68162710e+00	4.44050394e+05	3.00000000e+02	3.85320426e+02	8.04355362e+06	1.81399271e+00	1.10221180e-05	8.94776451e-03	4.08765461e-10	7.47798980e-02
4.31131869e-01	1.19520001e-01	8.49609403e-03	2.67079814e+00	4.41538320e+05	3.00000000e+02	3.88144537e+02	8.00899778e+06	1.81662739e+00	1.10240659e-05	8.88943624e-03	4.79643929e-10	7.42081797e-02
4.30062726e-01	1.19520001e-01	8.49609403e-03	2.66576572e+00	4.38308649e+05	3.00000000e+02	3.87687775e+02	7.90539905e+06	1.81371540e+00	1.10248652e-05	8.82304202e-03	5.67016732e-10	7.35853177e-02
4.28995937e-01	1.19520001e-01	8.49609403e-03	2.66873396e+00	4.34524083e+05	3.00000000e+02	3.78070123e+02	7.72786187e+06	1.79216459e+00	1.10243074e-05	8.73042857e-03	6.66825904e-10	7.27787274e-02
4.27931517e-01	1.19520001e-01	8.49609403e-03	2.64520123e+00	4.30369386e+05	3.00000000e+02	3.57450951e+02	7.71999927e+06	1.73539999e+00	1.10211872e-05	8.60824110e-03	7.46471348e-10	7.17666890e-02
4.26869452e-01	1.19520001e-01	8.49609403e-03	2.65548744e+00	4.28854838e+05	3.00000000e+02	3.40472561e+02	7.58557208e+06	1.69698491e+00	1.10211164e-05	8.47398973e-03	7.72281403e-10	7.06822345e-02
4.25809741e-01	1.19520001e-01	8.49609403e-03	2.66647661e+00	4.25559413e+05	3.00000000e+02	3.18006954e+02	7.37599270e+06	1.64327933e+00	1.10221468e-05	8.35546870e-03	7.67522445e-10	6.97309475e-02
4.24752400e-01	1.19520001e-01	8.49609403e-03	2.67360878e+00	4.23471614e+05	3.00000000e+02	2.97706249e+02	7.24371626e+06	1.59193889e+00	1.10231799e-05	8.28971377e-03	7.41093517e-10	6.91902167e-02
4.23697397e-01	1.19520001e-01	8.49609403e-03	2.67871940e+00	4.20742568e+05	3.00000000e+02	2.87334392e+02	7.09790679e+06	1.56538687e+00	1.10236677e-05	8.28804406e-03	7.09635129e-10	6.91312781e-02
4.45249379e-01	1.19520001e-01	7.91015662e-03	2.31113141e+00	4.39836391e+05	3.00000000e+02	6.45463447e+02	1.10305853e+07	2.18114316e+00	1.10142355e-05	1.53021844e-02	2.18380539e-10	1.21512631e-01
4.44148868e-01	1.19520001e-01	7.91015662e-03	2.31346005e+00	4.41110352e+05	3.00000000e+02	6.19029299e+02	1.10642844e+07	2.13726288e+00	1.10133400e-05	1.50500675e-02	2.28951073e-10	1.19770859e-01
4.43050816e-01	1.19520001e-01	7.91015662e-03	2.32118753e+00	4.43030628e+05	3.00000000e+02	5.88325775e+02	1.10773334e+07	2.08707789e+00	1.10132572e-05	1.47742943e-02	2.42593698e-10	1.17847546e-01
4.41955209e-01	1.19520001e-01	7.91015663e-03	2.33365028e+00	4.45275047e+05	3.00000000e+02	5.56149877e+02	1.10620554e+07	2.03441906e+00	1.10144744e-05	1.44885184e-02	2.62290522e-10	1.15768151e-01
4.40862014e-01	1.19520001e-01	7.91015662e-03	2.34456024e+00	4.47330512e+05	3.00000000e+02	5.25052389e+02	1.10507352e+07	1.98152560e+00	1.10134330e-05	1.42146547e-02	2.88644180e-10	1.13824423e-01
4.39771249e-01	1.19520001e-01	7.91015662e-03	2.35230037e+00	4.48801441e+05	3.00000000e+02	4.99004901e+02	1.10386373e+07	1.93493739e+00	1.10134215e-05	1.39709288e-02	3.23204093e-10	1.12019004e-01
4.38682898e-01	1.19520001e-01	7.91015662e-03	2.35571164e+00	4.49426908e+05	3.00000000e+02	4.79044376e+02	1.10263697e+07	1.89688426e+00	1.10153548e-05	1.37681024e-02	3.68146267e-10	1.10367550e-01
4.37596962e-01	1.19520001e-01	7.91015663e-03	2.34830295e+00	4.49105535e+05	3.00000000e+02	4.63229622e+02	1.10749626e+07	1.86210550e+00	1.10169487e-05	1.36037425e-02	4.19381722e-10	1.09095415e-01
4.36513453e-01	1.19520001e-01	7.91015662e-03	2.34299479e+00	4.48198285e+05	3.00000000e+02	4.50544218e+02	1.10720388e+07	1.83430857e+00	1.10172286e-05	1.34672389e-02	4.80625867e-10	1.07955029e-01
4.35432359e-01	1.19520001e-01	7.91015662e-03	2.33719010e+00	4.47023775e+05	3.00000000e+02	4.39989758e+02	1.10615759e+07	1.81036772e+00	1.10177240e-05	1.33468373e-02	5.50701650e-10	1.06961215e-01
4.34353665e-01	1.19520001e-01	7.91015662e-03	2.32924782e+00	4.46163065e+05	3.00000000e+02	4.30399466e+02	1.10861748e+07	1.78728046e+00	1.10189798e-05	1.32440867e-02	6.29028777e-10	1.06018258e-01
4.33277353e-01	1.19520001e-01	7.91015662e-03	2.31663407e+00	4.45231961e+05	3.00000000e+02	4.25108210e+02	1.11533097e+07	1.77127295e+00	1.10200448e-05	1.31768698e-02	7.21466361e-10	1.05348947e-01
4.32203412e-01	1.19520001e-01	7.91015662e-03	2.29431600e+00	4.43893248e+05	3.00000000e+02	4.22534658e+02	1.12968618e+07	1.75710303e+00	1.10217598e-05	1.31627074e-02	8.36817911e-10	1.04999469e-01
4.31131870e-01	1.19520001e-01	7.91015663e-03	2.26387517e+00	4.41899992e+05	3.00000000e+02	4.19076813e+02	1.14940602e+07	1.73796123e+00	1.10235977e-05	1.32144042e-02	9.84695636e-10	1.05117017e-01
4.30062726e-01	1.19520001e-01	7.91015662e-03	2.22999935e+00	4.39208357e+05	3.00000000e+02	4.09025302e+02	1.16994134e+07	1.70376183e+00	1.10257707e-05	1.33317643e-02	1.16717705e-09	1.05697330e-01
4.28995937e-01	1.19520001e-01	7.91015662e-03	2.19828602e+00	4.35982926e+05	3.00000000e+02	3.86970290e+02	1.18634336e+07	1.64497489e+00	1.10283876e-05	1.35036738e-02	1.38758299e-09	1.06666292e-01
4.27931518e-01	1.19520001e-01	7.91015663e-03	2.17673747e+00	4.32706008e+05	3.00000000e+02	3.50711292e+02	1.19204798e+07	1.55807760e+00	1.10300937e-05	1.37116210e-02	1.63442510e-09	1.07903747e-01
4.26869452e-01	1.19520001e-01	7.91015663e-03	2.16953124e+00	4.29757891e+05	3.00000000e+02	3.02230332e+02	1.18439655e+07	1.44396890e+00	1.10302289e-05	1.39417680e-02	1.89722472e-09	1.09336697e-01
4.25809741e-01	1.19520001e-01	7.91015662e-03	2.17341939e+00	4.27214808e+05	3.00000000e+02	2.47021602e+02	1.16723599e+07	1.30651780e+00	1.10309848e-05	1.41848762e-02	2.13542281e-09	1.10892851e-01
4.24752399e-01	1.19520001e-01	7.91015663e-03	2.18456697e+00	4.24635410e+05	3.00000000e+02	1.95034291e+02	1.14243565e+07	1.16372143e+00	1.10326419e-05	1.44399017e-02	2.31669012e-09	1.12550127e-01
4.45249379e-01	1.19520001e-01	7.32421899e-03	2.19005209e+00	4.40311112e+05	3.00000000e+02	7.23647699e+02	1.24132684e+07	2.24692861e+00	1.10202621e-05	1.81127694e-02	3.62601353e-10	1.39713223e-01
4.44148869e-01	1.19520001e-01	7.32421898e-03	2.18578505e+00	4.41487492e+05	3.00000000e+02	7.01351087e+02	1.25148461e+07	2.21006136e+00	1.10193890e-05	1.78543339e-02	3.88349986e-10	1.38039983e-01
4.43050816e-01	1.19520001e-01	7.32421899e-03	2.18573264e+00	4.43309229e+05	3.00000000e+02	6.74199821e+02	1.26068920e+07	2.16685251e+00	1.10192965e-05	1.76145439e-02	4.21762080e-10	1.36455761e-01
4.41955209e-01	1.19520001e-01	7.32421899e-03	2.18836308e+00	4.45417404e+05	3.00000000e+02	6.44794674e+02	1.26848405e+07	2.12022670e+00	1.10199214e-05	1.74045556e-02	4.66072913e-10	1.34996341e-01
4.40862015e-01	1.19520001e-01	7.32421899e-03	2.19069408e+00	4.47405166e+05	3.00000000e+02	6.15891775e+02	1.27610237e+07	2.07303318e+00	1.10211573e-05	1.72275004e-02	5.19334382e-10	1.33667304e-01
4.39771250e-01	1.19520001e-01	7.32421899e-03	2.18723710e+00	4.48872464e+05	3.00000000e+02	5.89692535e+02	1.28712839e+07	2.02685752e+00	1.10211753e-05	1.70850880e-02	5.82540711e-10	1.32594054e-01
4.38682899e-01	1.19520001e-01	7.32421899e-03	2.17859497e+00	4.49491306e+05	3.00000000e+02	5.68111243e+02	1.29959249e+07	1.98538488e+00	1.10217515e-05	1.69831706e-02	6.63537807e-10	1.31746725e-01
4.37596961e-01	1.19520001e-01	7.32421899e-03	2.16483445e+00	4.49178392e+05	3.00000000e+02	5.49845146e+02	1.31303479e+07	1.94681768e+00	1.10229451e-05	1.69217247e-02	7.63365618e-10	1.31099029e-01
4.36513454e-01	1.19520001e-01	7.32421899e-03	2.14873897e+00	4.48246003e+05	3.00000000e+02	5.33697930e+02	1.32596370e+07	1.91064562e+00	1.10242698e-05	1.68952921e-02	8.82826678e-10	1.30654749e-01
4.35432359e-01	1.19520001e-01	7.32421899e-03	2.13245260e+00	4.47196996e+05	3.00000000e+02	5.17889993e+02	1.33885576e+07	1.87476521e+00	1.10255929e-05	1.68947879e-02	1.02293263e-09	1.30397802e-01
4.34353665e-01	1.19520001e-01	7.32421899e-03	2.11583620e+00	4.46330953e+05	3.00000000e+02	5.02500688e+02	1.35345698e+07	1.83921480e+00	1.10272516e-05	1.69153371e-02	1.18451915e-09	1.30228398e-01
4.33277354e-01	1.19520001e-01	7.32421898e-03	2.09581012e+00	4.45413080e+05	3.00000000e+02	4.89177463e+02	1.37232689e+07	1.80575148e+00	1.10291385e-05	1.69619317e-02	1.37532448e-09	1.30201703e-01
4.32203412e-01	1.19520001e-01	7.32421899e-03	2.06993584e+00	4.44191375e+05	3.00000000e+02	4.78238299e+02	1.39740906e+07	1.77403919e+00	1.10313279e-05	1.70466756e-02	1.61221638e-09	1.30398673e-01
4.31131869e-01	1.19520001e-01	7.32421898e-03	2.03806921e+00	4.42338261e+05	3.00000000e+02	4.66394899e+02	1.42764324e+07	1.73794390e+00	1.10342035e-05	1.71897691e-02	1.91507364e-09	1.30929215e-01
4.30062726e-01	1.19520001e-01	7.32421899e-03	2.00479823e+00	4.39538081e+05	3.00000000e+02	4.50530821e+02	1.45506931e+07	1.69384411e+00	1.10360722e-05	1.74107494e-02	2.29876650e-09	1.31954599e-01
4.28995937e-01	1.19520001e-01	7.32421899e-03	1.97184789e+00	4.36506134e+05	3.00000000e+02	4.22196977e+02	1.48233001e+07	1.62595224e+00	1.10376562e-05	1.77250667e-02	2.75675345e-09	1.33570220e-01
4.27931518e-01	1.19520001e-01	7.32421898e-03	1.94165912e+00	4.33652507e+05	3.00000000e+02	3.78361969e+02	1.50913200e+07	1.52695419e+00	1.10409033e-05	1.81331746e-02	3.27748094e-09	1.35756399e-01
4.26869452e-01	1.19520001e-01	7.32421898e-03	1.92045399e+00	4.30674936e+05	3.00000000e+02	3.20628665e+02	1.52261785e+07	1.39786226e+00	1.10415268e-05	1.86289379e-02	3.85738837e-09	1.38509234e-01
4.25809741e-01	1.19520001e-01	7.32421899e-03	1.90539226e+00	4.27962337e+05	3.00000000e+02	2.52735299e+02	1.53034640e+07	1.23595887e+00	1.10436216e-05	1.91959853e-02	4.44921103e-09	1.41682981e-01
4.24752400e-01	1.19520001e-01	7.32421899e-03	1.89806260e+00	4.25555315e+05	3.00000000e+02	1.84966672e+02	1.52869068e+07	1.05523516e+00	1.10444257e-05	1.98102228e-02	5.01150288e-09	1.45129835e-01
4.45249379e-01	1.19520001e-01	6.73828158e-03	2.09803104e+00	4.40858388e+05	3.00000000e+02	7.43295166e+02	1.36751403e+07	2.22847989e+00	1.10221997e-05	2.15112200e-02	5.71012033e-10	1.60299938e-01
4.44148869e-01	1.19520001e-01	6.73828157e-03	2.09105339e+00	4.41900050e+05	3.00000000e+02	7.23292664e+02	1.38158548e+07	2.19457399e+00	1.10224909e-05	2.12201238e-02	6.16038468e-10	1.58566605e-01
4.43050816e-01	1.19520001e-01	6.73828158e-03	2.08866838e+00	4.43509764e+05	3.00000000e+02	6.99550442e+02	1.39339420e+07	2.15689167e+00	1.10231652e-05	2.09868791e-02	6.77559494e-10	1.57106598e-01
4.41955209e-01	1.19520001e-01	6.73828158e-03	2.08710439e+00	4.45454051e+05	3.00000000e+02	6.73773665e+02	1.40621784e+07	2.11586648e+00	1.10237975e-05	2.08204342e-02	7.55170822e-10	1.55966908e-01
4.40862015e-01	1.19520001e-01	6.73828158e-03	2.08363338e+00	4.47374681e+05	3.00000000e+02	6.47913890e+02	1.42134003e+07	2.07303360e+00	1.10243589e-05	2.07125765e-02	8.46998797e-10	1.55126939e-01
4.39771250e-01	1.19520001e-01	6.73828158e-03	2.07657344e+00	4.48788325e+05	3.00000000e+02	6.24471865e+02	1.43838050e+07	2.03155489e+00	1.10253379e-05	2.06539570e-02	9.58323144e-10	1.54518527e-01
4.38682899e-01	1.19520001e-01	6.73828158e-03	2.06421703e+00	4.49408392e+05	3.00000000e+02	6.04578173e+02	1.45798483e+07	1.99274977e+00	1.10265976e-05	2.06416733e-02	1.09683968e-09	1.54143826e-01
4.37596961e-01	1.19520001e-01	6.73828158e-03	2.04690537e+00	4.49156277e+05	3.00000000e+02	5.87596102e+02	1.47936427e+07	1.95603852e+00	1.10281158e-05	2.06733722e-02	1.26894121e-09	1.53982108e-01
4.36513454e-01	1.19520001e-01	6.73828158e-03	2.02674609e+00	4.48276127e+05	3.00000000e+02	5.71819427e+02	1.50133264e+07	1.91977086e+00	1.10298629e-05	2.07429526e-02	1.47940614e-09	1.54002362e-01
4.35432359e-01	1.19520001e-01	6.73828157e-03	2.00584301e+00	4.47301144e+05	3.00000000e+02	5.55541308e+02	1.52442690e+07	1.88213765e+00	1.10317815e-05	2.08420898e-02	1.73289797e-09	1.54172925e-01
4.34353665e-01	1.19520001e-01	6.73828158e-03	1.98482812e+00	4.46367498e+05	3.00000000e+02	5.38796707e+02	1.54847250e+07	1.84352595e+00	1.10335444e-05	2.09673687e-02	2.03573081e-09	1.54471098e-01
4.33277354e-01	1.19520001e-01	6.73828158e-03	1.96132009e+00	4.45426869e+05	3.00000000e+02	5.22682619e+02	1.57661331e+07	1.80470707e+00	1.10351168e-05	2.11236671e-02	2.40046402e-09	1.54893404e-01
4.32203412e-01	1.19520001e-01	6.73828158e-03	1.93318634e+00	4.44177873e+05	3.00000000e+02	5.07157521e+02	1.61086456e+07	1.76460394e+00	1.10370099e-05	2.13252299e-02	2.85636173e-09	1.55524826e-01
4.31131869e-01	1.19520001e-01	6.73828157e-03	1.90116717e+00	4.42318882e+05	3.00000000e+02	4.90787421e+02	1.64881437e+07	1.72110897e+00	1.10392325e-05	2.15955504e-02	3.43160394e-09	1.56511527e-01
4.30062726e-01	1.19520001e-01	6.73828158e-03	1.86680897e+00	4.39846957e+05	3.00000000e+02	4.68689919e+02	1.68859443e+07	1.66629230e+00	1.10415983e-05	2.19552470e-02	4.14630828e-09	1.57954139e-01
4.28995937e-01	1.19520001e-01	6.73828158e-03	1.83332999e+00	4.36942761e+05	3.00000000e+02	4.36372739e+02	1.72567565e+07	1.59314635e+00	1.10429178e-05	2.24290827e-02	5.00612210e-09	1.60007894e-01
4.27931518e-01	1.19520001e-01	6.73828157e-03	1.80181446e+00	4.34009320e+05	3.00000000e+02	3.89266682e+02	1.76208489e+07	1.49150269e+00	1.10444729e-05	2.30292710e-02	6.01474790e-09	1.62701890e-01
4.26869452e-01	1.19520001e-01	6.73828157e-03	1.77502006e+00	4.31206188e+05	3.00000000e+02	3.27761725e+02	1.79334383e+07	1.35827410e+00	1.10454577e-05	2.37620759e-02	7.18114791e-09	1.66055979e-01
4.25809741e-01	1.19520001e-01	6.73828158e-03	1.75392771e+00	4.28754521e+05	3.00000000e+02	2.55754235e+02	1.81844327e+07	1.19266882e+00	1.10455610e-05	2.46166119e-02	8.44505730e-09	1.69973931e-01
4.24752400e-01	1.19520001e-01	6.73828158e-03	1.73855257e+00	4.26231872e+05	3.00000000e+02	1.81616465e+02	1.83300265e+07	1.00070607e+00	1.10447369e-05	2.55684545e-02	9.83004697e-09	1.74256554e-01
4.45249379e-01	1.19520001e-01	6.15234417e-03	2.03468064e+00	4.41291223e+05	3.00000000e+02	6.94273037e+02	1.47233043e+07	2.12205584e+00	1.10165815e-05	2.60929439e-02	8.99259809e-10	1.84765291e-01
4.44148869e-01	1.19520001e-01	6.15234417e-03	2.02913649e+00	4.42223423e+05	3.00000000e+02	6.74677080e+02	1.48529431e+07	2.08885681e+00	1.10175574e-05	2.57149353e-02	9.59258404e-10	1.82915848e-01
4.43050816e-01	1.19520001e-01	6.15234417e-03	2.02750208e+00	4.43573944e+05	3.00000000e+02	6.51947730e+02	1.49555016e+07	2.05235326e+00	1.10185720e-05	2.54393133e-02	1.04719036e-09	1.81473366e-01
4.41955209e-01	1.19520001e-01	6.15234417e-03	2.02586205e+00	4.45312722e+05	3.00000000e+02	6.27011862e+02	1.50815131e+07	2.01178996e+00	1.10192126e-05	2.52739830e-02	1.15756502e-09	1.80491120e-01
4.40862015e-01	1.19520001e-01	6.15234417e-03	2.02242662e+00	4.47057272e+05	3.00000000e+02	6.02086132e+02	1.52364323e+07	1.96957359e+00	1.10200577e-05	2.51961723e-02	1.28847476e-09	1.79861199e-01
4.39771249e-01	1.19520001e-01	6.15234417e-03	2.01516877e+00	4.48366382e+05	3.00000000e+02	5.79454515e+02	1.54215900e+07	1.92854349e+00	1.10211354e-05	2.51828961e-02	1.44643374e-09	1.79472679e-01
4.38682899e-01	1.19520001e-01	6.15234417e-03	2.00287254e+00	4.48935884e+05	3.00000000e+02	5.60214482e+02	1.56357539e+07	1.89024940e+00	1.10223728e-05	2.52263749e-02	1.64371924e-09	1.79301486e-01
4.37596961e-01	1.19520001e-01	6.15234417e-03	1.98567945e+00	4.48753392e+05	3.00000000e+02	5.43977206e+02	1.58787749e+07	1.85441792e+00	1.10237077e-05	2.53236003e-02	1.89251980e-09	1.79353053e-01
4.36513453e-01	1.19520001e-01	6.15234417e-03	1.96522094e+00	4.47947873e+05	3.00000000e+02	5.29193048e+02	1.61370713e+07	1.81935906e+00	1.10251555e-05	2.54688850e-02	2.20022375e-09	1.79593283e-01
4.35432360e-01	1.19520001e-01	6.15234417e-03	1.94361587e+00	4.46999459e+05	3.00000000e+02	5.14621972e+02	1.64073370e+07	1.78405916e+00	1.10263180e-05	2.56548490e-02	2.57359581e-09	1.79987068e-01
4.34353665e-01	1.19520001e-01	6.15234417e-03	1.92026886e+00	4.45960515e+05	3.00000000e+02	4.99447938e+02	1.67093905e+07	1.74674272e+00	1.10277669e-05	2.58786805e-02	3.02693897e-09	1.80496505e-01
4.33277354e-01	1.19520001e-01	6.15234417e-03	1.89502318e+00	4.44877446e+05	3.00000000e+02	4.85503713e+02	1.70483564e+07	1.71058976e+00	1.10293028e-05	2.61435855e-02	3.59174920e-09	1.81133282e-01
4.32203412e-01	1.19520001e-01	6.15234417e-03	1.86622597e+00	4.43454086e+05	3.00000000e+02	4.71995067e+02	1.74344762e+07	1.67354110e+00	1.10307450e-05	2.64629719e-02	4.31342483e-09	1.81953632e-01
4.31131869e-01	1.19520001e-01	6.15234417e-03	1.83283296e+00	4.41582887e+05	3.00000000e+02	4.56460119e+02	1.78830744e+07	1.63084367e+00	1.10316612e-05	2.68653786e-02	5.23194748e-09	1.83107882e-01
4.30062726e-01	1.19520001e-01	6.15234417e-03	1.79669448e+00	4.39134372e+05	3.00000000e+02	4.35549999e+02	1.83703678e+07	1.57710543e+00	1.10328010e-05	2.73787546e-02	6.38050425e-09	1.84703133e-01
4.28995937e-01	1.19520001e-01	6.15234417e-03	1.76136166e+00	4.36425549e+05	3.00000000e+02	4.04305176e+02	1.88451899e+07	1.50448017e+00	1.10327261e-05	2.80365824e-02	7.79337681e-09	1.86898773e-01
4.27931518e-01	1.19520001e-01	6.15234417e-03	1.72906916e+00	4.33647626e+05	3.00000000e+02	3.59051708e+02	1.92823468e+07	1.40487202e+00	1.10315949e-05	2.88579875e-02	9.51415728e-09	1.89738530e-01
4.26869452e-01	1.19520001e-01	6.15234417e-03	1.70031329e+00	4.31002880e+05	3.00000000e+02	3.00316070e+02	1.96850713e+07	1.27437663e+00	1.10292593e-05	2.98639547e-02	1.15214692e-08	1.93246511e-01
4.25809741e-01	1.19520001e-01	6.15234417e-03	1.67578574e+00	4.28480332e+05	3.00000000e+02	2.31888285e+02	2.00235205e+07	1.11214143e+00	1.10250106e-05	3.10529495e-02	1.37596819e-08	1.97319748e-01
4.24752399e-01	1.19520001e-01	6.15234417e-03	1.65510656e+00	4.25800782e+05	3.00000000e+02	1.60786297e+02	2.02681691e+07	9.20845256e-01	1.10189757e-05	3.24021863e-02	1.63058130e-08	2.01706251e-01
4.45249379e-01	1.19520001e-01	5.56640653e-03	1.97267295e+00	4.41648997e+05	3.00000000e+02	5.98125276e+02	1.57765313e+07	1.94428389e+00	1.09889028e-05	3.24945771e-02	1.55517491e-09	2.10939346e-01
4.44148868e-01	1.19520001e-01	5.56640653e-03	1.97343080e+00	4.42511004e+05	3.00000000e+02	5.77219727e+02	1.58330784e+07	1.90985964e+00	1.09918418e-05	3.19330674e-02	1.61213826e-09	2.09199934e-01
4.43050817e-01	1.19520001e-01	5.56640653e-03	1.97544536e+00	4.43676108e+05	3.00000000e+02	5.53051154e+02	1.58849411e+07	1.87006318e+00	1.09938363e-05	3.15289474e-02	1.71095269e-09	2.07886866e-01
4.41955208e-01	1.19520001e-01	5.56640653e-03	1.97650568e+00	4.45148738e+05	3.00000000e+02	5.27054159e+02	1.59701650e+07	1.82586204e+00	1.09950974e-05	3.13034676e-02	1.84425822e-09	2.07071682e-01
4.40862015e-01	1.19520001e-01	5.56640653e-03	1.97505846e+00	4.46690842e+05	3.00000000e+02	5.01313579e+02	1.60997543e+07	1.77992078e+00	1.09959922e-05	3.12145037e-02	2.00840144e-09	2.06624901e-01
4.39771249e-01	1.19520001e-01	5.56640653e-03	1.96994270e+00	4.47867936e+05	3.00000000e+02	4.77873035e+02	1.62610133e+07	1.73544542e+00	1.09967028e-05	3.12125347e-02	2.21055268e-09	2.06393132e-01
4.38682898e-01	1.19520001e-01	5.56640653e-03	1.96007964e+00	4.48345058e+05	3.00000000e+02	4.57882193e+02	1.64487073e+07	1.69440908e+00	1.09972944e-05	3.12782839e-02	2.46364133e-09	2.06318359e-01
4.37596961e-01	1.19520001e-01	5.56640653e-03	1.94603425e+00	4.48240439e+05	3.00000000e+02	4.41204170e+02	1.66647185e+07	1.65722307e+00	1.09977656e-05	3.14069867e-02	2.78297578e-09	2.06395601e-01
4.36513453e-01	1.19520001e-01	5.56640653e-03	1.92845146e+00	4.47548533e+05	3.00000000e+02	4.26583661e+02	1.69014734e+07	1.62210178e+00	1.09981274e-05	3.15950958e-02	3.17202743e-09	2.06622204e-01
4.35432360e-01	1.19520001e-01	5.56640653e-03	1.90845185e+00	4.46576099e+05	3.00000000e+02	4.12990287e+02	1.71652045e+07	1.58770267e+00	1.09984563e-05	3.18368111e-02	3.64567512e-09	2.06966131e-01
4.34353665e-01	1.19520001e-01	5.56640653e-03	1.88683150e+00	4.45528688e+05	3.00000000e+02	4.00389617e+02	1.74513549e+07	1.55440604e+00	1.09985104e-05	3.21303353e-02	4.23245423e-09	2.07407483e-01
4.33277354e-01	1.19520001e-01	5.56640653e-03	1.86194795e+00	4.44255763e+05	3.00000000e+02	3.88936856e+02	1.77861678e+07	1.52186655e+00	1.09985930e-05	3.24794717e-02	4.98704693e-09	2.07930010e-01
4.32203412e-01	1.19520001e-01	5.56640653e-03	1.83300516e+00	4.42693381e+05	3.00000000e+02	3.78015010e+02	1.81827690e+07	1.48866155e+00	1.09984321e-05	3.28990856e-02	5.97469189e-09	2.08586978e-01
4.31131869e-01	1.19520001e-01	5.56640653e-03	1.80018829e+00	4.40696336e+05	3.00000000e+02	3.65297768e+02	1.86339542e+07	1.45034211e+00	1.09977135e-05	3.34247704e-02	7.26704160e-09	2.09520458e-01
4.30062726e-01	1.19520001e-01	5.56640653e-03	1.76658469e+00	4.38217952e+05	3.00000000e+02	3.47478163e+02	1.90775366e+07	1.40149754e+00	1.09958558e-05	3.40912070e-02	8.92168496e-09	2.10838313e-01
4.28995937e-01	1.19520001e-01	5.56640653e-03	1.73289431e+00	4.35498231e+05	3.00000000e+02	3.19733692e+02	1.95232444e+07	1.33190217e+00	1.09925461e-05	3.49435154e-02	1.09473790e-08	2.12666542e-01
4.27931518e-01	1.19520001e-01	5.56640653e-03	1.70217466e+00	4.32939322e+05	3.00000000e+02	2.80235991e+02	1.99320552e+07	1.23644050e+00	1.09870520e-05	3.60071595e-02	1.33364734e-08	2.15021121e-01
4.26869452e-01	1.19520001e-01	5.56640653e-03	1.67524911e+00	4.30221258e+05	3.00000000e+02	2.30222472e+02	2.02493431e+07	1.11260722e+00	1.09789818e-05	3.73149757e-02	1.60710689e-08	2.17869740e-01
4.25809741e-01	1.19520001e-01	5.56640653e-03	1.65193697e+00	4.27593272e+05	3.00000000e+02	1.74699732e+02	2.04791964e+07	9.63416670e-01	1.09677889e-05	3.88724474e-02	1.90924136e-08	2.21064294e-01
4.45249379e-01	1.19520001e-01	4.98046889e-03	1.89864710e+00	4.41928707e+05	3.00000000e+02	4.67959540e+02	1.66022579e+07	1.69839149e+00	1.09163854e-05	4.20687743e-02	3.24894108e-09	2.31832565e-01