VARIABLES ="X" "Y" "Z" "rho" "press" "temp" "tau_wall" "qdot" "yplus" "muLam" "ZMean" "ZVar" "CMean" 
Zone T ="wall" I = 7342 , F = point
4.93749917e-01	1.19520001e-01	9.08203144e-03	1.51325807e+00	1.70591205e+05	3.00000000e+02	2.03513854e+03	4.26838600e+06	1.89556184e+00	1.82098310e-05	9.60831160e-06	3.01344497e-16	1.08294591e-04
4.92541760e-01	1.19520001e-01	9.08203143e-03	1.52324906e+00	1.71472160e+05	3.00000000e+02	2.02102549e+03	4.24207283e+06	1.89520348e+00	1.82098301e-05	8.68899788e-06	2.56537886e-16	9.75241374e-05
4.91336287e-01	1.19520001e-01	9.08203144e-03	1.54470779e+00	1.73918022e+05	3.00000000e+02	2.01039972e+03	4.24533978e+06	1.90348248e+00	1.82098294e-05	7.84521629e-06	2.19590382e-16	8.76739186e-05
4.90133480e-01	1.19520001e-01	9.08203144e-03	1.57325605e+00	1.77430153e+05	3.00000000e+02	2.00801606e+03	4.27640508e+06	1.91985232e+00	1.82098286e-05	7.04934484e-06	1.86858858e-16	7.83995495e-05
4.88933340e-01	1.19520001e-01	9.08203144e-03	1.60862633e+00	1.81871382e+05	3.00000000e+02	2.00377154e+03	4.32250003e+06	1.93926084e+00	1.82098280e-05	6.31052690e-06	1.52901395e-16	6.98073810e-05
4.87735882e-01	1.19520001e-01	9.08203143e-03	1.64648675e+00	1.86590342e+05	3.00000000e+02	1.99225519e+03	4.36617047e+06	1.95630317e+00	1.82098274e-05	5.62846116e-06	1.13586031e-16	6.18872330e-05
4.86541077e-01	1.19520001e-01	9.08203144e-03	1.68169973e+00	1.90948020e+05	3.00000000e+02	1.97727682e+03	4.40197881e+06	1.96966574e+00	1.82098269e-05	5.00009498e-06	6.98401301e-17	5.45961340e-05
4.93749916e-01	1.19520001e-01	8.49609403e-03	1.51322575e+00	1.71908366e+05	3.00000000e+02	2.08577121e+03	4.40961478e+06	1.91897254e+00	1.82098689e-05	3.50137958e-05	2.22110954e-15	4.16771382e-04
4.92541761e-01	1.19520001e-01	8.49609403e-03	1.51239515e+00	1.71395072e+05	3.00000000e+02	2.07978679e+03	4.36430544e+06	1.91569198e+00	1.82098660e-05	3.35312980e-05	1.97493695e-15	3.98356560e-04
4.91336286e-01	1.19520001e-01	8.49609403e-03	1.53142840e+00	1.73540928e+05	3.00000000e+02	2.06953036e+03	4.36320012e+06	1.92294976e+00	1.82098638e-05	3.23657810e-05	1.82832911e-15	3.83986357e-04
4.90133479e-01	1.19520001e-01	8.49609403e-03	1.55873724e+00	1.76902529e+05	3.00000000e+02	2.06458236e+03	4.39137133e+06	1.93769896e+00	1.82098614e-05	3.11108112e-05	1.71834497e-15	3.68593002e-04
4.88933340e-01	1.19520001e-01	8.49609403e-03	1.59172116e+00	1.81081946e+05	3.00000000e+02	2.06010532e+03	4.43638070e+06	1.95596918e+00	1.82098591e-05	2.98221927e-05	1.61829949e-15	3.52866872e-04
4.87735882e-01	1.19520001e-01	8.49609403e-03	1.62715588e+00	1.85553983e+05	3.00000000e+02	2.04984305e+03	4.48090027e+06	1.97268954e+00	1.82098567e-05	2.84879796e-05	1.49053087e-15	3.36660209e-04
4.86541077e-01	1.19520001e-01	8.49609403e-03	1.66004866e+00	1.89683750e+05	3.00000000e+02	2.03634057e+03	4.51842626e+06	1.98595559e+00	1.82098542e-05	2.70346692e-05	1.31685965e-15	3.19041887e-04
4.93749917e-01	1.19520001e-01	7.91015663e-03	1.52380785e+00	1.74488867e+05	3.00000000e+02	2.12301686e+03	4.55071757e+06	1.94275062e+00	1.82102184e-05	1.23947691e-04	1.86302366e-14	1.57573781e-03
4.92541761e-01	1.19520001e-01	7.91015663e-03	1.50277204e+00	1.71316038e+05	3.00000000e+02	2.12649092e+03	4.46728553e+06	1.93087301e+00	1.82102115e-05	1.22784944e-04	1.71321272e-14	1.56011790e-03
4.91336286e-01	1.19520001e-01	7.91015662e-03	1.51572267e+00	1.72761355e+05	3.00000000e+02	2.12144818e+03	4.46375532e+06	1.93687346e+00	1.82102213e-05	1.24547839e-04	1.69319708e-14	1.58061318e-03
4.90133480e-01	1.19520001e-01	7.91015662e-03	1.54143020e+00	1.75951045e+05	3.00000000e+02	2.11350684e+03	4.49126833e+06	1.94956944e+00	1.82102302e-05	1.26210143e-04	1.70454503e-14	1.59819869e-03
4.88933340e-01	1.19520001e-01	7.91015662e-03	1.57147881e+00	1.79813955e+05	3.00000000e+02	2.10836605e+03	4.53642389e+06	1.96608398e+00	1.82102367e-05	1.27482354e-04	1.71878524e-14	1.60967490e-03
4.87735883e-01	1.19520001e-01	7.91015662e-03	1.60361105e+00	1.83981577e+05	3.00000000e+02	2.10147061e+03	4.58667065e+06	1.98283185e+00	1.82102404e-05	1.28325797e-04	1.71155000e-14	1.61433033e-03
4.86541077e-01	1.19520001e-01	7.91015663e-03	1.63359135e+00	1.87875684e+05	3.00000000e+02	2.09232140e+03	4.63243830e+06	1.99692009e+00	1.82102375e-05	1.28088723e-04	1.65973951e-14	1.60381178e-03
4.92541760e-01	1.19520001e-01	7.32421899e-03	1.50229054e+00	1.71947498e+05	3.00000000e+02	2.11631303e+03	4.53449772e+06	1.92796498e+00	1.81910666e-05	3.94196564e-04	1.12275472e-13	4.31928988e-03
4.91336286e-01	1.19520001e-01	7.32421899e-03	1.50178978e+00	1.71654870e+05	3.00000000e+02	2.11518909e+03	4.50959553e+06	1.92741680e+00	1.81883756e-05	4.12384414e-04	1.15674250e-13	4.48748137e-03
4.90133480e-01	1.19520001e-01	7.32421899e-03	1.52460316e+00	1.74474978e+05	3.00000000e+02	2.09698264e+03	4.53396261e+06	1.93399557e+00	1.81848924e-05	4.34424273e-04	1.22226846e-13	4.69580220e-03
4.88933340e-01	1.19520001e-01	7.32421899e-03	1.55084306e+00	1.77940942e+05	3.00000000e+02	2.08162054e+03	4.58476204e+06	1.94378041e+00	1.81814239e-05	4.55375232e-04	1.29458674e-13	4.90180642e-03
4.87735883e-01	1.19520001e-01	7.32421899e-03	1.57924307e+00	1.81659436e+05	3.00000000e+02	2.07293357e+03	4.63064171e+06	1.95733604e+00	1.81820219e-05	4.74940804e-04	1.37144526e-13	5.10683382e-03
4.86541078e-01	1.19520001e-01	7.32421899e-03	1.60599145e+00	1.85109365e+05	3.00000000e+02	2.06451215e+03	4.66685722e+06	1.96973219e+00	1.81829162e-05	4.90197030e-04	1.41421623e-13	5.25596577e-03
4.92541760e-01	1.19520001e-01	6.73828157e-03	1.51886604e+00	1.74296469e+05	3.00000000e+02	2.02737965e+03	4.54745064e+06	1.90033620e+00	1.81629848e-05	1.11085377e-03	5.48671380e-13	1.08315981e-02
4.91336286e-01	1.19520001e-01	6.73828158e-03	1.49274457e+00	1.70622300e+05	3.00000000e+02	2.03353191e+03	4.47288577e+06	1.88744269e+00	1.81566138e-05	1.17849380e-03	5.81505025e-13	1.13842569e-02
4.90133480e-01	1.19520001e-01	6.73828157e-03	1.51017461e+00	1.72657724e+05	3.00000000e+02	1.99508720e+03	4.48878297e+06	1.88210568e+00	1.81401512e-05	1.27502615e-03	6.14561459e-13	1.21906769e-02
4.88933340e-01	1.19520001e-01	6.73828158e-03	1.52914111e+00	1.75624813e+05	3.00000000e+02	1.96135050e+03	4.57649794e+06	1.87855485e+00	1.81329261e-05	1.37410881e-03	6.64588236e-13	1.30908136e-02
4.87735883e-01	1.19520001e-01	6.73828158e-03	1.55538789e+00	1.78702648e+05	3.00000000e+02	1.95730330e+03	4.56322625e+06	1.89173194e+00	1.81417513e-05	1.46929320e-03	7.51672971e-13	1.39442453e-02
4.86541078e-01	1.19520001e-01	6.73828158e-03	1.57916734e+00	1.81660088e+05	3.00000000e+02	1.95605034e+03	4.57488853e+06	1.90516208e+00	1.81452328e-05	1.54934724e-03	8.20038486e-13	1.46022361e-02
4.92541761e-01	1.19520001e-01	6.15234417e-03	1.55381509e+00	1.79063084e+05	3.00000000e+02	1.79675316e+03	4.57847435e+06	1.81778373e+00	1.80797345e-05	2.80490178e-03	1.88354797e-12	2.50937592e-02
4.91336286e-01	1.19520001e-01	6.15234417e-03	1.48722516e+00	1.70159706e+05	3.00000000e+02	1.86046016e+03	4.41317147e+06	1.80898105e+00	1.80865160e-05	2.97814315e-03	2.07224116e-12	2.65247738e-02
4.90133480e-01	1.19520001e-01	6.15234417e-03	1.48133991e+00	1.70385322e+05	3.00000000e+02	1.83007185e+03	4.51015630e+06	1.79205799e+00	1.80717312e-05	3.26910923e-03	2.29348857e-12	2.89396317e-02
4.88933340e-01	1.19520001e-01	6.15234417e-03	1.50874363e+00	1.72768641e+05	3.00000000e+02	1.79653868e+03	4.41812242e+06	1.79355807e+00	1.80551438e-05	3.58647810e-03	2.58463342e-12	3.15120446e-02
4.87735882e-01	1.19520001e-01	6.15234417e-03	1.52503446e+00	1.75592868e+05	3.00000000e+02	1.78526947e+03	4.49539248e+06	1.79730638e+00	1.80575983e-05	3.88891798e-03	3.01581259e-12	3.40604148e-02
4.86541077e-01	1.19520001e-01	6.15234417e-03	1.53859502e+00	1.78200868e+05	3.00000000e+02	1.76103550e+03	4.61212778e+06	1.79456586e+00	1.80416893e-05	4.14891498e-03	3.23311457e-12	3.62127371e-02
4.92541761e-01	1.19520001e-01	5.56640653e-03	1.58904858e+00	1.86206592e+05	3.00000000e+02	1.54411848e+03	4.71521572e+06	1.71140125e+00	1.80031060e-05	6.46126754e-03	5.78631267e-12	5.44893210e-02
4.91336287e-01	1.19520001e-01	5.56640653e-03	1.47110136e+00	1.71234889e+05	3.00000000e+02	1.64983769e+03	4.55539873e+06	1.70218892e+00	1.80021565e-05	6.72395123e-03	5.66347819e-12	5.65853684e-02
4.90133479e-01	1.19520001e-01	5.56640653e-03	1.44393542e+00	1.68550843e+05	3.00000000e+02	1.64973733e+03	4.57724885e+06	1.68740854e+00	1.79908394e-05	7.39364064e-03	6.42897210e-12	6.19197554e-02
4.88933340e-01	1.19520001e-01	5.56640653e-03	1.45137084e+00	1.70173990e+05	3.00000000e+02	1.61501814e+03	4.61864524e+06	1.67448701e+00	1.79840086e-05	8.16041979e-03	7.35871812e-12	6.79313482e-02
4.87735882e-01	1.19520001e-01	5.56640653e-03	1.46282670e+00	1.72493150e+05	3.00000000e+02	1.58288471e+03	4.69364570e+06	1.66514763e+00	1.79745789e-05	8.87651022e-03	8.22768180e-12	7.35715496e-02
4.86541077e-01	1.19520001e-01	5.56640653e-03	1.47361890e+00	1.74682631e+05	3.00000000e+02	1.56307571e+03	4.76724246e+06	1.66124853e+00	1.79695985e-05	9.49498014e-03	8.95146573e-12	7.83976793e-02
4.91336286e-01	1.19520001e-01	4.98046889e-03	1.43207833e+00	1.73570807e+05	3.00000000e+02	1.44231744e+03	4.94990104e+06	1.57386351e+00	1.79612737e-05	1.33780250e-02	1.14987820e-11	1.06436491e-01
4.90133480e-01	1.19520001e-01	4.98046889e-03	1.37213061e+00	1.67078243e+05	3.00000000e+02	1.49740505e+03	4.96628641e+06	1.57006847e+00	1.79572226e-05	1.45316926e-02	1.28701292e-11	1.14753375e-01
4.88933340e-01	1.19520001e-01	4.98046889e-03	1.36379703e+00	1.67669062e+05	3.00000000e+02	1.47457767e+03	5.08066977e+06	1.55366753e+00	1.79531637e-05	1.59046873e-02	1.41644117e-11	1.24415702e-01
4.87735882e-01	1.19520001e-01	4.98046889e-03	1.36708828e+00	1.69630196e+05	3.00000000e+02	1.44209133e+03	5.19618947e+06	1.53863254e+00	1.79494082e-05	1.71515912e-02	1.54216480e-11	1.32987508e-01
4.86541077e-01	1.19520001e-01	4.98046889e-03	1.37035611e+00	1.71489743e+05	3.00000000e+02	1.42853810e+03	5.31613256e+06	1.53339152e+00	1.79473347e-05	1.81784372e-02	1.67064631e-11	1.39879296e-01
4.91336286e-01	1.19520001e-01	4.39453149e-03	1.37571805e+00	1.77169786e+05	3.00000000e+02	1.25355828e+03	5.55324034e+06	1.43964331e+00	1.79420665e-05	2.29319063e-02	1.77099143e-11	1.68235872e-01
4.90133480e-01	1.19520001e-01	4.39453148e-03	1.27110230e+00	1.66254912e+05	3.00000000e+02	1.43592022e+03	5.82248848e+06	1.48136055e+00	1.79384543e-05	2.42658966e-02	2.10582982e-11	1.75414055e-01
4.88933340e-01	1.19520001e-01	4.39453149e-03	1.24923646e+00	1.65335640e+05	3.00000000e+02	1.43767599e+03	5.94176444e+06	1.47007926e+00	1.79309157e-05	2.60146489e-02	2.29102953e-11	1.84408573e-01
4.87735883e-01	1.19520001e-01	4.39453149e-03	1.24498161e+00	1.66917499e+05	3.00000000e+02	1.41814314e+03	6.11460071e+06	1.45825420e+00	1.79225026e-05	2.75639846e-02	2.54722380e-11	1.91733908e-01
4.86541078e-01	1.19520001e-01	4.39453149e-03	1.24387407e+00	1.68535958e+05	3.00000000e+02	1.41207382e+03	6.25763752e+06	1.45512201e+00	1.79146317e-05	2.87929254e-02	2.81250150e-11	1.97089335e-01
4.85348896e-01	1.19520001e-01	4.39453149e-03	1.24471576e+00	1.69981003e+05	3.00000000e+02	1.42080506e+03	6.37408199e+06	1.46057785e+00	1.79088631e-05	2.96320866e-02	3.09341567e-11	2.00478327e-01
4.91336287e-01	1.19520001e-01	3.80859396e-03	1.29233380e+00	1.82111777e+05	3.00000000e+02	1.22385359e+03	6.71296070e+06	1.38488518e+00	1.78619430e-05	3.39460466e-02	3.32306087e-11	2.16567806e-01
4.90133480e-01	1.19520001e-01	3.80859396e-03	1.16964111e+00	1.66170980e+05	3.00000000e+02	1.43830830e+03	6.78134331e+06	1.42881032e+00	1.78553394e-05	3.49168813e-02	3.49534768e-11	2.18493746e-01
4.88933340e-01	1.19520001e-01	3.80859396e-03	1.13267430e+00	1.63175716e+05	3.00000000e+02	1.48908944e+03	6.92209230e+06	1.43235847e+00	1.78341156e-05	3.66786827e-02	4.06329951e-11	2.22865544e-01
4.87735883e-01	1.19520001e-01	3.80859396e-03	1.12571665e+00	1.64247843e+05	3.00000000e+02	1.47797926e+03	7.04683493e+06	1.42430051e+00	1.78130165e-05	3.82734611e-02	4.53669700e-11	2.26284602e-01
4.86541078e-01	1.19520001e-01	3.80859396e-03	1.12390482e+00	1.65647345e+05	3.00000000e+02	1.47221403e+03	7.14094606e+06	1.42172925e+00	1.77960546e-05	3.95405947e-02	5.01145976e-11	2.28585735e-01
4.85348895e-01	1.19520001e-01	3.80859396e-03	1.12489301e+00	1.67113988e+05	3.00000000e+02	1.48397346e+03	7.23369033e+06	1.42898899e+00	1.77840299e-05	4.04310097e-02	5.52921579e-11	2.29986570e-01
4.91336287e-01	1.19520001e-01	3.22265644e-03	1.21898674e+00	1.88182570e+05	3.00000000e+02	1.16396654e+03	7.37585286e+06	1.32424299e+00	1.76926319e-05	4.61706006e-02	6.68346545e-11	2.37203817e-01
4.90133479e-01	1.19520001e-01	3.22265643e-03	1.08418574e+00	1.66965903e+05	3.00000000e+02	1.38287130e+03	7.17235938e+06	1.36108163e+00	1.76949337e-05	4.64301510e-02	5.90096276e-11	2.36794712e-01
4.88933340e-01	1.19520001e-01	3.22265644e-03	1.02693348e+00	1.61249104e+05	3.00000000e+02	1.51770415e+03	7.47554524e+06	1.38960390e+00	1.76711200e-05	4.81812230e-02	7.70294980e-11	2.37751496e-01
4.87735882e-01	1.19520001e-01	3.22265644e-03	1.01606254e+00	1.61626269e+05	3.00000000e+02	1.51548338e+03	7.53389341e+06	1.38331685e+00	1.76443038e-05	4.99445964e-02	8.63849485e-11	2.38688369e-01
4.86541078e-01	1.19520001e-01	3.22265643e-03	1.01252289e+00	1.62851174e+05	3.00000000e+02	1.51030484e+03	7.60430185e+06	1.38027823e+00	1.76221332e-05	5.13602912e-02	9.54940850e-11	2.39297685e-01
4.85348895e-01	1.19520001e-01	3.22265643e-03	1.01393747e+00	1.64466652e+05	3.00000000e+02	1.52339316e+03	7.68356642e+06	1.38845014e+00	1.76064453e-05	5.23616392e-02	1.04133446e-10	2.39663274e-01
4.91336287e-01	1.19520001e-01	2.63671891e-03	1.12414109e+00	1.94989702e+05	3.00000000e+02	1.07668574e+03	7.64524323e+06	1.24179503e+00	1.74259056e-05	6.29135504e-02	1.60646353e-10	2.41594551e-01
4.90133480e-01	1.19520001e-01	2.63671891e-03	9.87488359e-01	1.69065136e+05	3.00000000e+02	1.31042116e+03	7.38017121e+06	1.28204698e+00	1.74525097e-05	6.16828919e-02	1.24338703e-10	2.41330881e-01
4.88933340e-01	1.19520001e-01	2.63671891e-03	9.15240525e-01	1.59958468e+05	3.00000000e+02	1.50480680e+03	7.73165158e+06	1.32474630e+00	1.74247142e-05	6.35583519e-02	1.57612632e-10	2.41200441e-01
4.87735883e-01	1.19520001e-01	2.63671891e-03	8.99051358e-01	1.59415368e+05	3.00000000e+02	1.50790176e+03	7.73108749e+06	1.31717208e+00	1.73870797e-05	6.57870322e-02	1.74594074e-10	2.41145120e-01
4.86541078e-01	1.19520001e-01	2.63671891e-03	8.93909322e-01	1.60380575e+05	3.00000000e+02	1.49393761e+03	7.74260695e+06	1.30957616e+00	1.73569170e-05	6.75748058e-02	1.87511110e-10	2.41044214e-01
4.85348895e-01	1.19520001e-01	2.63671891e-03	8.95759482e-01	1.62153943e+05	3.00000000e+02	1.50039905e+03	7.79401594e+06	1.31538463e+00	1.73355138e-05	6.88100666e-02	2.00858983e-10	2.40969127e-01
4.92541760e-01	1.19520001e-01	2.05078133e-03	1.05957784e+00	2.24324610e+05	3.00000000e+02	9.26597245e+02	8.10468860e+06	1.15689307e+00	1.68464773e-05	9.43795441e-02	5.68089046e-10	2.37610608e-01
4.91336287e-01	1.19520001e-01	2.05078133e-03	9.90243263e-01	2.01467186e+05	3.00000000e+02	9.35145914e+02	7.54848694e+06	1.11628295e+00	1.69561298e-05	8.91500077e-02	3.59987458e-10	2.38111101e-01
4.90133479e-01	1.19520001e-01	2.05078133e-03	8.71019575e-01	1.72233494e+05	3.00000000e+02	1.16433276e+03	7.01873372e+06	1.16321557e+00	1.70287470e-05	8.57144389e-02	2.62464296e-10	2.38879006e-01
4.88933340e-01	1.19520001e-01	2.05078133e-03	7.95460599e-01	1.59101051e+05	3.00000000e+02	1.38496760e+03	7.17256534e+06	1.21439538e+00	1.70004109e-05	8.72114211e-02	2.88257376e-10	2.38534764e-01
4.87735882e-01	1.19520001e-01	2.05078133e-03	7.74103848e-01	1.57341736e+05	3.00000000e+02	1.38648686e+03	7.33403484e+06	1.20354063e+00	1.69311759e-05	8.99804844e-02	2.94235371e-10	2.38145569e-01
4.86541078e-01	1.19520001e-01	2.05078133e-03	7.66890698e-01	1.58137573e+05	3.00000000e+02	1.35787492e+03	7.54922711e+06	1.18937009e+00	1.68760185e-05	9.21064907e-02	2.89257351e-10	2.37982496e-01
4.85348895e-01	1.19520001e-01	2.05078133e-03	7.69272189e-01	1.60266642e+05	3.00000000e+02	1.36563810e+03	7.56936939e+06	1.19614512e+00	1.68544404e-05	9.35798323e-02	3.05112167e-10	2.37798794e-01
4.92541760e-01	1.19520001e-01	1.46484381e-03	8.96888492e-01	2.24511262e+05	3.00000000e+02	6.98221140e+02	6.84703294e+06	9.59757341e-01	1.62179017e-05	1.29704767e-01	5.83620344e-10	2.29151454e-01
4.91336286e-01	1.19520001e-01	1.46484381e-03	8.50467587e-01	2.05750458e+05	3.00000000e+02	6.72180318e+02	6.16945170e+06	9.13187983e-01	1.62855330e-05	1.25402484e-01	4.28652768e-10	2.30245227e-01
4.90133480e-01	1.19520001e-01	1.46484381e-03	7.43329628e-01	1.75673625e+05	3.00000000e+02	8.62204997e+02	6.21516607e+06	9.62227378e-01	1.63647232e-05	1.20992592e-01	2.93561595e-10	2.30948389e-01
4.88933340e-01	1.19520001e-01	1.46484381e-03	6.71980249e-01	1.58779833e+05	3.00000000e+02	1.10146963e+03	6.09750539e+06	1.03461317e+00	1.63559925e-05	1.21401836e-01	2.68599134e-10	2.30984332e-01
4.87735882e-01	1.19520001e-01	1.46484381e-03	6.46877748e-01	1.56263928e+05	3.00000000e+02	1.20097485e+03	6.61033523e+06	1.06315473e+00	1.63069211e-05	1.23924076e-01	3.02170516e-10	2.30546069e-01
4.86541078e-01	1.19520001e-01	1.46484381e-03	6.43587276e-01	1.57005006e+05	3.00000000e+02	1.20988238e+03	6.50806684e+06	1.06606420e+00	1.62810469e-05	1.25776611e-01	3.10314771e-10	2.30140585e-01
4.85348896e-01	1.19520001e-01	1.46484381e-03	6.46569612e-01	1.58953697e+05	3.00000000e+02	1.22767994e+03	6.42245062e+06	1.07757059e+00	1.62627834e-05	1.27295285e-01	3.34757702e-10	2.29630139e-01
4.92541761e-01	1.19520001e-01	8.78906287e-04	7.80229840e-01	2.24633055e+05	3.00000000e+02	5.84158981e+02	6.15899655e+06	8.48114993e-01	1.56571406e-05	1.61654271e-01	3.02800297e-10	2.19740608e-01
4.91336287e-01	1.19520001e-01	8.78906287e-04	7.33220148e-01	2.07993890e+05	3.00000000e+02	5.19692453e+02	5.53801708e+06	7.74191234e-01	1.56831225e-05	1.60414298e-01	2.13885234e-10	2.19775863e-01
4.90133479e-01	1.19520001e-01	8.78906286e-04	6.35607147e-01	1.77961908e+05	3.00000000e+02	6.65447385e+02	5.29354010e+06	8.13665198e-01	1.57215692e-05	1.58364885e-01	1.62770541e-10	2.20090542e-01
4.88933340e-01	1.19520001e-01	8.78906287e-04	5.68815837e-01	1.59384974e+05	3.00000000e+02	9.16304881e+02	5.19091904e+06	9.03272577e-01	1.57208998e-05	1.58657198e-01	1.51751963e-10	2.19801841e-01
4.87735882e-01	1.19520001e-01	8.78906286e-04	5.48314193e-01	1.56237957e+05	3.00000000e+02	1.07859258e+03	5.57874435e+06	9.62807255e-01	1.57106621e-05	1.60267162e-01	1.97766541e-10	2.18898472e-01
4.86541078e-01	1.19520001e-01	8.78906286e-04	5.46393636e-01	1.56066080e+05	3.00000000e+02	1.09143978e+03	5.14765579e+06	9.67331344e-01	1.57024649e-05	1.61851428e-01	2.02679192e-10	2.17860813e-01
4.85348896e-01	1.19520001e-01	8.78906287e-04	5.48256485e-01	1.57906757e+05	3.00000000e+02	1.09952693e+03	5.23481988e+06	9.74026433e-01	1.56788594e-05	1.63288060e-01	2.09619049e-10	2.16756881e-01
4.92541761e-01	1.19520001e-01	2.92968761e-04	7.23155820e-01	2.24621093e+05	3.00000000e+02	6.02438869e+02	5.18077469e+06	8.46237524e-01	1.53415959e-05	1.82141414e-01	1.27481773e-10	2.11319286e-01
4.91336287e-01	1.19520001e-01	2.92968761e-04	6.74845319e-01	2.09152534e+05	3.00000000e+02	5.39745610e+02	4.62172037e+06	7.74773649e-01	1.53218858e-05	1.83492086e-01	8.72374902e-11	2.08990159e-01
4.90133479e-01	1.19520001e-01	2.92968761e-04	5.78522277e-01	1.79060156e+05	3.00000000e+02	6.55760086e+02	4.21535448e+06	7.91525228e-01	1.53058748e-05	1.84496463e-01	6.72579457e-11	2.06032725e-01
4.88933340e-01	1.19520001e-01	2.92968761e-04	5.14486019e-01	1.59593866e+05	3.00000000e+02	8.85741851e+02	4.01516595e+06	8.68668721e-01	1.52853917e-05	1.85665673e-01	6.65042651e-11	2.03077821e-01
4.87735883e-01	1.19520001e-01	2.92968761e-04	4.96821496e-01	1.55725678e+05	3.00000000e+02	1.03536906e+03	4.30315038e+06	9.24337286e-01	1.52618680e-05	1.86986613e-01	8.57318575e-11	2.00097149e-01
4.86541078e-01	1.19520001e-01	2.92968761e-04	4.93910602e-01	1.55701689e+05	3.00000000e+02	1.04372743e+03	4.25803803e+06	9.26997383e-01	1.52345489e-05	1.88501768e-01	8.85797091e-11	1.96990634e-01
4.85348896e-01	1.19520001e-01	2.92968761e-04	4.96504844e-01	1.57452763e+05	3.00000000e+02	1.05285953e+03	4.25292276e+06	9.35080758e-01	1.52085645e-05	1.89916935e-01	9.43523480e-11	1.93598774e-01
3.84001315e-01	1.19520001e-01	6.09375024e-03	1.69432977e+00	1.67313244e+05	3.00000000e+02	6.79699025e+02	1.98981522e+06	1.15915615e+00	1.82098234e-05	3.58384151e-77	-7.89680963e-94	-5.88438684e-75
3.84001314e-01	1.19520001e-01	5.15625020e-03	1.69430455e+00	1.67311423e+05	3.00000000e+02	6.79752750e+02	1.98987940e+06	1.15919334e+00	1.82098234e-05	1.52393602e-78	-1.22281187e-94	-1.23811455e-76
3.85455906e-01	1.19520001e-01	4.21875017e-03	1.80492272e+00	1.79703564e+05	3.00000000e+02	7.19164821e+02	2.12196418e+06	1.23063192e+00	1.82098234e-05	1.82474952e-76	-1.56912472e-94	7.33549959e-76
3.88199389e-01	1.19520001e-01	1.40625005e-03	1.82530726e+00	1.82902927e+05	3.00000000e+02	8.81064719e+02	2.22604460e+06	1.36979806e+00	1.82098234e-05	2.33191823e-74	5.70485784e-95	2.08231067e-73
3.88199389e-01	1.19520001e-01	4.68750019e-04	1.82529213e+00	1.82902325e+05	3.00000000e+02	8.81100158e+02	2.22612602e+06	1.36981994e+00	1.82098234e-05	2.22863397e-74	7.95083974e-95	1.99050193e-73
3.96271244e-01	1.19520001e-01	8.90625036e-03	1.45420824e+00	1.41777828e+05	3.00000000e+02	8.96145808e+02	1.78638252e+06	1.23306875e+00	1.82098234e-05	1.44569523e-50	-3.93154666e-68	6.11458626e-50
3.95249277e-01	1.19520001e-01	8.90625035e-03	1.48698656e+00	1.45580873e+05	3.00000000e+02	9.22786748e+02	1.85261941e+06	1.26528642e+00	1.82098234e-05	3.92465467e-53	-9.70137090e-71	1.69407902e-52
3.94186422e-01	1.19520001e-01	8.90625036e-03	1.52806820e+00	1.50349700e+05	3.00000000e+02	9.49880195e+02	1.93190027e+06	1.30133898e+00	1.82098234e-05	1.06157857e-55	-2.27331918e-73	4.45346195e-55
3.93081054e-01	1.19520001e-01	8.90625035e-03	1.57791921e+00	1.56141436e+05	3.00000000e+02	9.74679977e+02	2.02309947e+06	1.33954731e+00	1.82098234e-05	2.80170530e-58	-5.03013531e-76	1.08712691e-57
3.91931475e-01	1.19520001e-01	8.90625036e-03	1.63599278e+00	1.62896543e+05	3.00000000e+02	9.92935006e+02	2.12317047e+06	1.37668872e+00	1.82098234e-05	7.13854913e-61	-1.03432663e-78	2.32858941e-60
3.90735894e-01	1.19520001e-01	8.90625035e-03	1.69922037e+00	1.70288266e+05	3.00000000e+02	1.00042512e+03	2.22793160e+06	1.40832147e+00	1.82098234e-05	1.73471942e-63	-1.92178408e-81	3.55031323e-63
3.89492497e-01	1.19520001e-01	8.90625035e-03	1.75613527e+00	1.77433885e+05	3.00000000e+02	1.00315505e+03	2.36133263e+06	1.43366494e+00	1.82098234e-05	4.02750260e-66	-3.25879239e-84	-1.76332115e-66
3.88199389e-01	1.19520001e-01	8.90625035e-03	1.82529215e+00	1.82902327e+05	3.00000000e+02	8.81100134e+02	2.22612600e+06	1.36981992e+00	1.82098234e-05	8.75394895e-69	-5.47357534e-87	-6.91153512e-68
3.86854545e-01	1.19520001e-01	8.90625036e-03	1.83763851e+00	1.84435078e+05	3.00000000e+02	8.16550324e+02	2.25225549e+06	1.32314113e+00	1.82098234e-05	1.67914942e-71	-3.65764997e-90	-5.11263210e-70
3.96271244e-01	1.19520001e-01	7.96875032e-03	1.45419632e+00	1.41776410e+05	3.00000000e+02	8.96145718e+02	1.78635404e+06	1.23306363e+00	1.82098234e-05	1.55770183e-49	-2.52228264e-67	6.82747059e-49
3.95249277e-01	1.19520001e-01	7.96875032e-03	1.48697873e+00	1.45579890e+05	3.00000000e+02	9.22793338e+02	1.85259567e+06	1.26528761e+00	1.82098234e-05	4.26435989e-52	-6.48885593e-70	1.84594473e-51
3.94186422e-01	1.19520001e-01	7.96875032e-03	1.52806679e+00	1.50349370e+05	3.00000000e+02	9.49888981e+02	1.93187991e+06	1.30134439e+00	1.82098234e-05	1.13723495e-54	-1.54964676e-72	4.72848806e-54
3.93081054e-01	1.19520001e-01	7.96875032e-03	1.57792831e+00	1.56142167e+05	3.00000000e+02	9.74687655e+02	2.02308214e+06	1.33955644e+00	1.82098234e-05	2.93945984e-57	-3.45353638e-75	1.12322916e-56
3.91931474e-01	1.19520001e-01	7.96875032e-03	1.63601385e+00	1.62898390e+05	3.00000000e+02	9.92932596e+02	2.12314545e+06	1.37669592e+00	1.82098234e-05	7.32016786e-60	-7.10435350e-78	2.32788924e-59
3.90735895e-01	1.19520001e-01	7.96875032e-03	1.69924996e+00	1.70290740e+05	3.00000000e+02	1.00040483e+03	2.22788457e+06	1.40831944e+00	1.82098234e-05	1.73814890e-62	-1.31539653e-80	3.34239476e-62
3.89492497e-01	1.19520001e-01	7.96875032e-03	1.75616438e+00	1.77436032e+05	3.00000000e+02	1.00311821e+03	2.36125905e+06	1.43365050e+00	1.82098234e-05	3.94477078e-65	-2.21788956e-83	-2.55132493e-65
3.88199389e-01	1.19520001e-01	7.96875032e-03	1.82530728e+00	1.82902928e+05	3.00000000e+02	8.81064696e+02	2.22604458e+06	1.36979805e+00	1.82098234e-05	8.38764594e-68	-3.69901133e-86	-7.00797833e-67
3.86854544e-01	1.19520001e-01	7.96875032e-03	1.83762389e+00	1.84433155e+05	3.00000000e+02	8.16546170e+02	2.25221518e+06	1.32313251e+00	1.82098234e-05	1.57598158e-70	-2.40453787e-89	-4.99108756e-69
3.96271244e-01	1.19520001e-01	7.03125028e-03	1.45417769e+00	1.41774567e+05	3.00000000e+02	8.96164679e+02	1.78635103e+06	1.23306878e+00	1.82098234e-05	4.57076882e-49	-2.20837672e-67	2.01583878e-48
3.95249278e-01	1.19520001e-01	7.03125028e-03	1.48696505e+00	1.45578488e+05	3.00000000e+02	9.22807242e+02	1.85258882e+06	1.26529132e+00	1.82098234e-05	1.28576360e-51	-7.02089825e-70	5.50939329e-51
3.94186422e-01	1.19520001e-01	7.03125028e-03	1.52806124e+00	1.50348815e+05	3.00000000e+02	9.49904409e+02	1.93187895e+06	1.30135260e+00	1.82098234e-05	3.44451533e-54	-1.87545747e-72	1.40353338e-53
3.93081054e-01	1.19520001e-01	7.03125028e-03	1.57793579e+00	1.56142943e+05	3.00000000e+02	9.74700500e+02	2.02308575e+06	1.33956845e+00	1.82098234e-05	8.87489912e-57	-4.46323248e-75	3.28641372e-56
3.91931475e-01	1.19520001e-01	7.03125028e-03	1.63603618e+00	1.62900555e+05	3.00000000e+02	9.92931307e+02	2.12313966e+06	1.37670442e+00	1.82098234e-05	2.19668231e-59	-9.56073128e-78	6.60867443e-59
3.90735895e-01	1.19520001e-01	7.03125028e-03	1.69928300e+00	1.70293690e+05	3.00000000e+02	1.00037914e+03	2.22785005e+06	1.40831505e+00	1.82098234e-05	5.17866270e-62	-1.81613643e-80	8.53967042e-62
3.89492497e-01	1.19520001e-01	7.03125028e-03	1.75619821e+00	1.77438632e+05	3.00000000e+02	1.00306626e+03	2.36118337e+06	1.43362719e+00	1.82098234e-05	1.16647105e-64	-3.11307449e-83	-1.31770367e-64
3.88199389e-01	1.19520001e-01	7.03125028e-03	1.82532712e+00	1.82903734e+05	3.00000000e+02	8.81006159e+02	2.22593939e+06	1.36975999e+00	1.82098234e-05	2.46155907e-67	-5.24470111e-86	-2.32961570e-66
3.86854545e-01	1.19520001e-01	7.03125028e-03	1.83761263e+00	1.84430932e+05	3.00000000e+02	8.16509332e+02	2.25211859e+06	1.32309860e+00	1.82098234e-05	4.59229468e-70	-3.42884244e-89	-1.59202958e-68
3.96271244e-01	1.19520001e-01	6.09375024e-03	1.45416309e+00	1.41772800e+05	3.00000000e+02	8.96140720e+02	1.78631277e+06	1.23304611e+00	1.82098234e-05	5.35226654e-51	-2.87723145e-69	2.37728578e-50
3.95249278e-01	1.19520001e-01	6.09375024e-03	1.48695163e+00	1.45577276e+05	3.00000000e+02	9.22827258e+02	1.85259996e+06	1.26529933e+00	1.82098234e-05	1.86608295e-53	-9.92136789e-72	8.01068256e-53
3.94186422e-01	1.19520001e-01	6.09375024e-03	1.52805607e+00	1.50348490e+05	3.00000000e+02	9.49928601e+02	1.93189849e+06	1.30136697e+00	1.82098234e-05	5.98337766e-56	-2.93712303e-74	2.42781746e-55
3.93081054e-01	1.19520001e-01	6.09375024e-03	1.57794514e+00	1.56144010e+05	3.00000000e+02	9.74715497e+02	2.02310033e+06	1.33958272e+00	1.82098234e-05	1.79852774e-58	-7.73998890e-77	6.56653859e-58
3.91931475e-01	1.19520001e-01	6.09375024e-03	1.63606058e+00	1.62902927e+05	3.00000000e+02	9.92925883e+02	2.12313395e+06	1.37671092e+00	1.82098234e-05	5.09251123e-61	-1.82356220e-79	1.47765866e-60
3.90735894e-01	1.19520001e-01	6.09375024e-03	1.69931654e+00	1.70296601e+05	3.00000000e+02	1.00034613e+03	2.22780706e+06	1.40830572e+00	1.82098234e-05	1.35168925e-63	-3.77733334e-82	1.95145251e-63
3.89492497e-01	1.19520001e-01	6.09375024e-03	1.75622968e+00	1.77440891e+05	3.00000000e+02	1.00300927e+03	2.36109820e+06	1.43359931e+00	1.82098234e-05	3.38570842e-66	-7.00148968e-85	-5.21290081e-66
3.88199389e-01	1.19520001e-01	6.09375024e-03	1.82534232e+00	1.82904038e+05	3.00000000e+02	8.80948236e+02	2.22583086e+06	1.36972067e+00	1.82098234e-05	7.86171141e-69	-1.26491620e-87	-8.34386024e-68
3.86854544e-01	1.19520001e-01	6.09375024e-03	1.83759675e+00	1.84428370e+05	3.00000000e+02	8.16480764e+02	2.25203292e+06	1.32306974e+00	1.82098234e-05	1.59420213e-71	-9.19944967e-91	-6.02781696e-70
3.85455907e-01	1.19520001e-01	6.09375024e-03	1.80495025e+00	1.79706217e+05	3.00000000e+02	7.19140671e+02	2.12195625e+06	1.23062064e+00	1.82098234e-05	2.69363309e-74	-1.01305613e-92	-2.65736224e-72
3.96271244e-01	1.19520001e-01	5.15625020e-03	1.45415832e+00	1.41771695e+05	3.00000000e+02	8.96078391e+02	1.78624132e+06	1.23300120e+00	1.82098234e-05	3.70312147e-53	-1.97954383e-71	1.64746323e-52
3.95249277e-01	1.19520001e-01	5.15625020e-03	1.48694389e+00	1.45576627e+05	3.00000000e+02	9.22840135e+02	1.85261185e+06	1.26530487e+00	1.82098234e-05	1.56305690e-55	-7.62741071e-74	6.70306399e-55
3.94186422e-01	1.19520001e-01	5.15625020e-03	1.52805242e+00	1.50348329e+05	3.00000000e+02	9.49948335e+02	1.93191951e+06	1.30137893e+00	1.82098234e-05	5.89291399e-58	-2.51614066e-76	2.37612632e-57
3.93081054e-01	1.19520001e-01	5.15625020e-03	1.57795100e+00	1.56144741e+05	3.00000000e+02	9.74727518e+02	2.02311585e+06	1.33959347e+00	1.82098234e-05	2.03823794e-60	-7.33164630e-79	7.32432470e-60
3.91931474e-01	1.19520001e-01	5.15625020e-03	1.63607578e+00	1.62904451e+05	3.00000000e+02	9.92923926e+02	2.12313515e+06	1.37671596e+00	1.82098234e-05	6.53020519e-63	-1.89307342e-81	1.82261373e-62
3.90735895e-01	1.19520001e-01	5.15625020e-03	1.69933681e+00	1.70298405e+05	3.00000000e+02	1.00032728e+03	2.22778527e+06	1.40830085e+00	1.82098234e-05	1.93439740e-65	-4.25887719e-84	2.39393097e-65
3.89492497e-01	1.19520001e-01	5.15625020e-03	1.75624773e+00	1.77442228e+05	3.00000000e+02	1.00297745e+03	2.36105315e+06	1.43358393e+00	1.82098234e-05	5.34564771e-68	-8.49932602e-87	-1.03971704e-67
3.88199389e-01	1.19520001e-01	5.15625020e-03	1.82534991e+00	1.82904152e+05	3.00000000e+02	8.80917098e+02	2.22577335e+06	1.36969931e+00	1.82098234e-05	1.35563676e-70	-1.64193185e-89	-1.58027207e-69