VARIABLES ="X" "Y" "Z" "rho" "press" "temp" "tau_wall" "qdot" "yplus" "muLam" "ZMean" "ZVar" "CMean" 
Zone T ="wall" I = 7342 , F = point
4.22644735e-01	1.19520001e-01	3.22265644e-03	5.95063049e-01	1.10048695e+05	3.00000000e+02	8.20706547e+02	5.36777920e+06	7.96434700e-01	1.72590009e-05	7.77541397e-02	8.63418763e-11	2.37207175e-01
4.23697397e-01	1.19520001e-01	2.63671891e-03	5.06777512e-01	1.10281822e+05	3.00000000e+02	1.14865481e+03	4.05751793e+06	8.96033170e-01	1.67482615e-05	1.03125938e-01	4.57105333e-10	1.25230528e-01
4.22644734e-01	1.19520001e-01	2.63671891e-03	4.95444932e-01	1.09976142e+05	3.00000000e+02	1.18741735e+03	3.92551484e+06	9.04731275e-01	1.66751662e-05	1.06722289e-01	5.89903930e-10	1.04881511e-01
4.23697397e-01	1.19520001e-01	2.05078133e-03	3.88225053e-01	1.09992798e+05	3.00000000e+02	1.32733893e+03	2.97245723e+06	8.97549575e-01	1.57313008e-05	1.60485747e-01	1.61667549e-09	3.49007864e-02
4.22644735e-01	1.19520001e-01	2.05078133e-03	3.75601944e-01	1.09865003e+05	3.00000000e+02	1.34383939e+03	2.88215723e+06	8.95221462e-01	1.56098057e-05	1.68462082e-01	1.94532083e-09	2.92366379e-02
4.23697397e-01	1.19520001e-01	1.46484381e-03	2.93968905e-01	1.11654019e+05	3.00000000e+02	1.39075031e+03	2.31545081e+06	8.68228186e-01	1.44854431e-05	2.44452233e-01	2.95628877e-09	1.10417135e-02
4.22644735e-01	1.19520001e-01	1.46484381e-03	2.82870359e-01	1.12006215e+05	3.00000000e+02	1.40263613e+03	2.23386353e+06	8.66869891e-01	1.42923189e-05	2.58502131e-01	3.41287302e-09	9.60573633e-03
4.23697397e-01	1.19520001e-01	8.78906286e-04	2.17075720e-01	1.10793139e+05	3.00000000e+02	1.00155122e+03	1.17549616e+06	7.03812685e-01	1.30309327e-05	3.61591420e-01	1.27054820e-09	4.16025450e-03
4.22644735e-01	1.19520001e-01	8.78906286e-04	2.08838221e-01	1.10957500e+05	3.00000000e+02	9.92475072e+02	1.09264863e+06	6.97839390e-01	1.28321581e-05	3.80029841e-01	1.36558833e-09	3.80673175e-03
4.23697397e-01	1.19520001e-01	2.92968761e-04	1.65578985e-01	1.13915933e+05	3.00000000e+02	6.83450920e+02	5.03355095e+05	5.72144366e-01	1.15648774e-05	5.18997199e-01	1.90272273e-10	2.57920969e-03
4.22644734e-01	1.19520001e-01	2.92968761e-04	1.62395128e-01	1.14457339e+05	3.00000000e+02	6.79296367e+02	4.69764112e+05	5.70544996e-01	1.14502937e-05	5.33794362e-01	1.80098423e-10	2.54662608e-03
4.34353665e-01	1.19520001e-01	9.08203144e-03	1.32778280e+00	1.46516629e+05	3.00000000e+02	1.80609753e+03	3.96230539e+06	1.68454754e+00	1.80817821e-05	1.93171592e-08	2.79195131e-19	2.37686947e-07
4.33277353e-01	1.19520001e-01	9.08203144e-03	1.32107046e+00	1.46288956e+05	3.00000000e+02	1.81094393e+03	4.02706924e+06	1.68253709e+00	1.80817821e-05	1.51393238e-08	2.48772068e-19	1.89200230e-07
4.32203412e-01	1.19520001e-01	9.08203144e-03	1.28972323e+00	1.42770744e+05	3.00000000e+02	1.80668943e+03	4.02099508e+06	1.66050109e+00	1.80817821e-05	1.15292212e-08	5.64205143e-20	1.46863189e-07
4.31131870e-01	1.19520001e-01	9.08203144e-03	1.23492215e+00	1.35831005e+05	3.00000000e+02	1.78038564e+03	3.90306600e+06	1.61296887e+00	1.80817821e-05	8.48164456e-09	-8.83338223e-20	1.10830437e-07
4.30062726e-01	1.19520001e-01	9.08203143e-03	1.16365842e+00	1.26427327e+05	3.00000000e+02	1.73671107e+03	3.67887563e+06	1.54641374e+00	1.80817821e-05	6.00966557e-09	-9.17582260e-20	8.13122320e-08
4.28995937e-01	1.19520001e-01	9.08203144e-03	1.09403273e+00	1.17220414e+05	3.00000000e+02	1.69792712e+03	3.42886133e+06	1.48259945e+00	1.80817821e-05	4.12619730e-09	-8.99100423e-20	5.84274814e-08
4.27931517e-01	1.19520001e-01	9.08203144e-03	1.04494666e+00	1.10781242e+05	3.00000000e+02	1.68374412e+03	3.24094403e+06	1.44289345e+00	1.80817821e-05	2.79723947e-09	-9.10829194e-20	4.18454332e-08
4.26869452e-01	1.19520001e-01	9.08203144e-03	1.03118824e+00	1.08905444e+05	3.00000000e+02	1.70278858e+03	3.17363758e+06	1.44144639e+00	1.80817821e-05	1.85297388e-09	-1.06319071e-19	2.98295840e-08
4.25809741e-01	1.19520001e-01	9.08203144e-03	1.05259494e+00	1.11495345e+05	3.00000000e+02	1.74090885e+03	3.22565322e+06	1.47254240e+00	1.80817820e-05	1.19812310e-09	-1.44051392e-19	2.13192119e-08
4.24752399e-01	1.19520001e-01	9.08203143e-03	1.09465752e+00	1.16697062e+05	3.00000000e+02	1.77827604e+03	3.33909850e+06	1.51770679e+00	1.80817820e-05	7.37088905e-10	-2.12840250e-19	1.53079672e-08
4.23697397e-01	1.19520001e-01	9.08203144e-03	1.14487226e+00	1.22882224e+05	3.00000000e+02	1.80092436e+03	3.46006866e+06	1.56197978e+00	1.80817820e-05	4.33707757e-10	-3.19291596e-19	1.13578481e-08
4.34353664e-01	1.19520001e-01	8.49609403e-03	1.31788065e+00	1.45890143e+05	3.00000000e+02	1.85415961e+03	4.02127764e+06	1.70043777e+00	1.80817824e-05	2.80767697e-07	-1.42106798e-17	3.27233470e-06
4.33277353e-01	1.19520001e-01	8.49609403e-03	1.32089640e+00	1.46867288e+05	3.00000000e+02	1.85956309e+03	4.10252090e+06	1.70486103e+00	1.80817824e-05	2.30960080e-07	-9.74506521e-18	2.71972380e-06
4.32203412e-01	1.19520001e-01	8.49609403e-03	1.29965805e+00	1.44616824e+05	3.00000000e+02	1.85053661e+03	4.11677018e+06	1.68699012e+00	1.80817823e-05	1.87084306e-07	-4.12643445e-18	2.22696259e-06
4.31131869e-01	1.19520001e-01	8.49609403e-03	1.25034081e+00	1.38349392e+05	3.00000000e+02	1.81741036e+03	4.01274411e+06	1.63979611e+00	1.80817823e-05	1.52436912e-07	-1.21085854e-18	1.83446012e-06
4.30062726e-01	1.19520001e-01	8.49609403e-03	1.17765889e+00	1.28650193e+05	3.00000000e+02	1.76588363e+03	3.77816320e+06	1.56870019e+00	1.80817822e-05	1.26984041e-07	-5.00399466e-19	1.54553311e-06
4.28995937e-01	1.19520001e-01	8.49609403e-03	1.10374610e+00	1.18822215e+05	3.00000000e+02	1.72376217e+03	3.51348879e+06	1.50045307e+00	1.80817822e-05	1.09459993e-07	-4.80450647e-19	1.34785738e-06
4.27931517e-01	1.19520001e-01	8.49609403e-03	1.05188539e+00	1.11956560e+05	3.00000000e+02	1.70427263e+03	3.31049294e+06	1.45647454e+00	1.80817822e-05	9.69991016e-08	-4.86872356e-19	1.20812204e-06
4.26869452e-01	1.19520001e-01	8.49609403e-03	1.03598677e+00	1.09759400e+05	3.00000000e+02	1.71620403e+03	3.22938020e+06	1.45047656e+00	1.80817822e-05	8.73340655e-08	-5.72803280e-19	1.10003700e-06
4.25809741e-01	1.19520001e-01	8.49609403e-03	1.05484104e+00	1.12013582e+05	3.00000000e+02	1.74724355e+03	3.26986220e+06	1.47679218e+00	1.80817822e-05	7.94308496e-08	-8.05585435e-19	1.01195827e-06
4.24752400e-01	1.19520001e-01	8.49609403e-03	1.09249198e+00	1.16649436e+05	3.00000000e+02	1.77626882e+03	3.36700742e+06	1.51534886e+00	1.80817821e-05	7.22036094e-08	-1.22302379e-18	9.31075671e-07
4.23697397e-01	1.19520001e-01	8.49609403e-03	1.13580063e+00	1.21962729e+05	3.00000000e+02	1.79261976e+03	3.46800574e+06	1.55218791e+00	1.80817821e-05	6.51310568e-08	-1.89412161e-18	8.51076115e-07
4.34353665e-01	1.19520001e-01	7.91015662e-03	1.30782674e+00	1.45232452e+05	3.00000000e+02	1.90803064e+03	4.07914518e+06	1.71837061e+00	1.80817861e-05	2.75713319e-06	-1.51639066e-16	3.09378058e-05
4.33277353e-01	1.19520001e-01	7.91015662e-03	1.32269353e+00	1.47680190e+05	3.00000000e+02	1.91417558e+03	4.17969742e+06	1.73089042e+00	1.80817854e-05	2.28435521e-06	-1.46669556e-16	2.58840069e-05
4.32203412e-01	1.19520001e-01	7.91015662e-03	1.31544525e+00	1.47144242e+05	3.00000000e+02	1.89641427e+03	4.21440853e+06	1.71811443e+00	1.80817847e-05	1.84329107e-06	-9.84549961e-17	2.11471396e-05
4.31131870e-01	1.19520001e-01	7.91015663e-03	1.27487796e+00	1.41978080e+05	3.00000000e+02	1.85370480e+03	4.13218903e+06	1.67225960e+00	1.80817842e-05	1.49078764e-06	-3.16858454e-17	1.73412668e-05
4.30062726e-01	1.19520001e-01	7.91015662e-03	1.20110435e+00	1.31997014e+05	3.00000000e+02	1.78987065e+03	3.88709123e+06	1.59496187e+00	1.80817838e-05	1.24601156e-06	6.94409349e-19	1.46978132e-05
4.28995937e-01	1.19520001e-01	7.91015662e-03	1.11981082e+00	1.21125885e+05	3.00000000e+02	1.74207242e+03	3.59880246e+06	1.51933852e+00	1.80817836e-05	1.10277306e-06	-1.79066387e-18	1.31887958e-05
4.27931518e-01	1.19520001e-01	7.91015663e-03	1.06223020e+00	1.13465066e+05	3.00000000e+02	1.71738433e+03	3.37424415e+06	1.46923813e+00	1.80817835e-05	1.03006875e-06	-2.13884387e-18	1.24847513e-05
4.26869452e-01	1.19520001e-01	7.91015663e-03	1.04234164e+00	1.10717642e+05	3.00000000e+02	1.72164302e+03	3.27477675e+06	1.45722199e+00	1.80817834e-05	9.93954475e-07	-2.56175620e-18	1.22063926e-05
4.25809741e-01	1.19520001e-01	7.91015662e-03	1.05751082e+00	1.12493573e+05	3.00000000e+02	1.74488757e+03	3.30068916e+06	1.47766251e+00	1.80817834e-05	9.82188808e-07	-3.11298399e-18	1.22254209e-05
4.24752399e-01	1.19520001e-01	7.91015663e-03	1.08985219e+00	1.16440646e+05	3.00000000e+02	1.76425299e+03	3.37807644e+06	1.50838899e+00	1.80817834e-05	9.83296391e-07	-3.39902796e-18	1.24192127e-05
4.34353665e-01	1.19520001e-01	7.32421899e-03	1.30065989e+00	1.44783610e+05	3.00000000e+02	1.96050150e+03	4.12217268e+06	1.73705458e+00	1.80818301e-05	2.10519233e-05	6.50335550e-17	2.32959923e-04
4.33277354e-01	1.19520001e-01	7.32421898e-03	1.32737645e+00	1.48734355e+05	3.00000000e+02	1.97144849e+03	4.24527076e+06	1.75969739e+00	1.80818210e-05	1.81102878e-05	-6.66519163e-17	2.00476231e-04
4.32203412e-01	1.19520001e-01	7.32421899e-03	1.33747244e+00	1.50412338e+05	3.00000000e+02	1.94756804e+03	4.31376204e+06	1.75564684e+00	1.80818127e-05	1.51649724e-05	-1.02919877e-16	1.68568749e-04
4.31131869e-01	1.19520001e-01	7.32421898e-03	1.31030712e+00	1.46870547e+05	3.00000000e+02	1.88749170e+03	4.25192626e+06	1.71071495e+00	1.80818062e-05	1.25971527e-05	5.46777740e-17	1.41261586e-04
4.30062726e-01	1.19520001e-01	7.32421899e-03	1.23868527e+00	1.37042605e+05	3.00000000e+02	1.80865626e+03	4.00955629e+06	1.62819788e+00	1.80818018e-05	1.07535499e-05	2.11477661e-16	1.22167306e-04
4.28995937e-01	1.19520001e-01	7.32421899e-03	1.14678455e+00	1.24609741e+05	3.00000000e+02	1.74656970e+03	3.68025458e+06	1.53951033e+00	1.80817997e-05	9.79349297e-06	8.71604985e-17	1.12900581e-04
4.27931518e-01	1.19520001e-01	7.32421898e-03	1.07886348e+00	1.15550291e+05	3.00000000e+02	1.71576554e+03	3.42099179e+06	1.47999740e+00	1.80817994e-05	9.63785758e-06	3.19093037e-17	1.12705546e-04
4.26869452e-01	1.19520001e-01	7.32421898e-03	1.05171957e+00	1.11820065e+05	3.00000000e+02	1.70978565e+03	3.29067414e+06	1.45871192e+00	1.80818002e-05	9.97036833e-06	1.73328898e-17	1.18228295e-04
4.25809741e-01	1.19520001e-01	7.32421899e-03	1.06100331e+00	1.12803513e+05	3.00000000e+02	1.72229800e+03	3.29003329e+06	1.47048702e+00	1.80818020e-05	1.06909496e-05	2.95905589e-17	1.28580225e-04
4.24752400e-01	1.19520001e-01	7.32421899e-03	1.08706701e+00	1.15882698e+05	3.00000000e+02	1.72899643e+03	3.33711517e+06	1.49133022e+00	1.80818046e-05	1.17431642e-05	7.58725663e-17	1.43416279e-04
4.34353665e-01	1.19520001e-01	6.73828158e-03	1.30082725e+00	1.44988544e+05	3.00000000e+02	1.99130998e+03	4.13718034e+06	1.75068775e+00	1.80826027e-05	1.20242466e-04	1.16034394e-14	1.37530263e-03
4.33277354e-01	1.19520001e-01	6.73828158e-03	1.33379486e+00	1.49784062e+05	3.00000000e+02	2.01326858e+03	4.27893062e+06	1.78249462e+00	1.80824609e-05	1.08734830e-04	1.28727930e-14	1.22886096e-03
4.32203412e-01	1.19520001e-01	6.73828158e-03	1.35965466e+00	1.53424149e+05	3.00000000e+02	1.98686683e+03	4.37060179e+06	1.78786462e+00	1.80823322e-05	9.70308028e-05	1.35235369e-14	1.08458480e-03
4.31131869e-01	1.19520001e-01	6.73828157e-03	1.34963466e+00	1.51975898e+05	3.00000000e+02	1.91295695e+03	4.33223696e+06	1.74783058e+00	1.80822206e-05	8.55772134e-05	1.28615065e-14	9.47338784e-04
4.30062726e-01	1.19520001e-01	6.73828158e-03	1.28675935e+00	1.43183792e+05	3.00000000e+02	1.81644368e+03	4.11055825e+06	1.66303027e+00	1.80821416e-05	7.63829379e-05	1.09845196e-14	8.42523632e-04
4.28995937e-01	1.19520001e-01	6.73828158e-03	1.18488885e+00	1.29237634e+05	3.00000000e+02	1.73529979e+03	3.74294462e+06	1.55979460e+00	1.80821070e-05	7.17584642e-05	8.30286137e-15	7.97446416e-04
4.27931518e-01	1.19520001e-01	6.73828157e-03	1.10178530e+00	1.18195715e+05	3.00000000e+02	1.70072987e+03	3.44322363e+06	1.48904253e+00	1.80821238e-05	7.35141492e-05	6.81513971e-15	8.28041371e-04
4.26869452e-01	1.19520001e-01	6.73828157e-03	1.06358726e+00	1.13051963e+05	3.00000000e+02	1.68771623e+03	3.27845382e+06	1.45738987e+00	1.80821854e-05	8.04515905e-05	7.00475800e-15	9.19532220e-04
4.25809741e-01	1.19520001e-01	6.73828158e-03	1.06472923e+00	1.12983088e+05	3.00000000e+02	1.69124941e+03	3.24733377e+06	1.45968833e+00	1.80822998e-05	9.22333345e-05	8.90082795e-15	1.07046124e-03
4.24752400e-01	1.19520001e-01	6.73828158e-03	1.08314481e+00	1.15026436e+05	3.00000000e+02	1.68604166e+03	3.25912251e+06	1.46997369e+00	1.80824901e-05	1.09303282e-04	1.25277565e-14	1.28810898e-03
4.34353665e-01	1.19520001e-01	6.15234417e-03	1.31063677e+00	1.46589969e+05	3.00000000e+02	1.97071580e+03	4.16066496e+06	1.74796079e+00	1.80847235e-05	5.24767798e-04	1.41446420e-13	5.93386124e-03
4.33277354e-01	1.19520001e-01	6.15234417e-03	1.34002919e+00	1.50959808e+05	3.00000000e+02	2.00582956e+03	4.29782967e+06	1.78295712e+00	1.80864624e-05	4.94897794e-04	1.65326381e-13	5.60388070e-03
4.32203412e-01	1.19520001e-01	6.15234417e-03	1.37491304e+00	1.55635073e+05	3.00000000e+02	1.98197216e+03	4.39006575e+06	1.79509042e+00	1.80879957e-05	4.70627910e-04	1.90551258e-13	5.28676594e-03
4.31131869e-01	1.19520001e-01	6.15234417e-03	1.38261222e+00	1.56214567e+05	3.00000000e+02	1.89997308e+03	4.35593749e+06	1.76233700e+00	1.80894493e-05	4.44639047e-04	1.99417882e-13	4.92299852e-03
4.30062726e-01	1.19520001e-01	6.15234417e-03	1.33616781e+00	1.49347955e+05	3.00000000e+02	1.78479740e+03	4.15582383e+06	1.67922755e+00	1.80886352e-05	4.19807355e-04	1.78669434e-13	4.55178532e-03
4.28995937e-01	1.19520001e-01	6.15234417e-03	1.23245495e+00	1.34947093e+05	3.00000000e+02	1.68262776e+03	3.77508005e+06	1.56593845e+00	1.80881958e-05	4.06740607e-04	1.42217687e-13	4.32717942e-03
4.27931518e-01	1.19520001e-01	6.15234417e-03	1.13049670e+00	1.21630664e+05	3.00000000e+02	1.65152138e+03	3.45359301e+06	1.48580918e+00	1.80885643e-05	4.23668566e-04	1.22729704e-13	4.42407755e-03
4.26869452e-01	1.19520001e-01	6.15234417e-03	1.07484463e+00	1.14429698e+05	3.00000000e+02	1.63867156e+03	3.25749764e+06	1.44302202e+00	1.80899027e-05	4.75405475e-04	1.29767122e-13	4.85774118e-03
4.25809741e-01	1.19520001e-01	6.15234417e-03	1.06334764e+00	1.12747575e+05	3.00000000e+02	1.62854887e+03	3.17837720e+06	1.43104814e+00	1.80873180e-05	5.63071673e-04	1.63970644e-13	5.57263016e-03
4.24752399e-01	1.19520001e-01	6.15234417e-03	1.07011539e+00	1.13402529e+05	3.00000000e+02	1.61508389e+03	3.16216689e+06	1.43021569e+00	1.80801360e-05	6.92217338e-04	2.27324421e-13	6.64200815e-03
4.34353665e-01	1.19520001e-01	5.56640653e-03	1.33975134e+00	1.49712707e+05	3.00000000e+02	1.74999665e+03	4.08443996e+06	1.67036935e+00	1.80305337e-05	1.85171721e-03	9.02075588e-13	1.60986751e-02
4.33277354e-01	1.19520001e-01	5.56640653e-03	1.35255787e+00	1.52149113e+05	3.00000000e+02	1.80931560e+03	4.20427045e+06	1.70568104e+00	1.80396312e-05	1.79376560e-03	1.09821369e-12	1.55542945e-02
4.32203412e-01	1.19520001e-01	5.56640653e-03	1.38238510e+00	1.56376469e+05	3.00000000e+02	1.80007812e+03	4.31046445e+06	1.71984944e+00	1.80409812e-05	1.78750361e-03	1.35630340e-12	1.54915693e-02
4.31131869e-01	1.19520001e-01	5.56640653e-03	1.39942268e+00	1.58258304e+05	3.00000000e+02	1.71885071e+03	4.30467935e+06	1.69090248e+00	1.80411973e-05	1.78714740e-03	1.52471752e-12	1.54815493e-02
4.30062726e-01	1.19520001e-01	5.56640653e-03	1.37104327e+00	1.53728398e+05	3.00000000e+02	1.60243355e+03	4.13996906e+06	1.61588391e+00	1.80424630e-05	1.77783448e-03	1.47348709e-12	1.54214905e-02
4.28995937e-01	1.19520001e-01	5.56640653e-03	1.28046993e+00	1.40867073e+05	3.00000000e+02	1.49453778e+03	3.78162565e+06	1.50816255e+00	1.80418211e-05	1.77601305e-03	1.21352490e-12	1.54510699e-02
4.27931518e-01	1.19520001e-01	5.56640653e-03	1.16531515e+00	1.26118891e+05	3.00000000e+02	1.46050920e+03	3.48679487e+06	1.42325439e+00	1.80294176e-05	1.85027475e-03	9.98688604e-13	1.61461299e-02
4.26869452e-01	1.19520001e-01	5.56640653e-03	1.08046926e+00	1.16162494e+05	3.00000000e+02	1.48504937e+03	3.33785719e+06	1.38184083e+00	1.80305518e-05	2.08203851e-03	1.05464655e-12	1.80938956e-02
4.25809741e-01	1.19520001e-01	5.56640653e-03	1.05590485e+00	1.13023286e+05	3.00000000e+02	1.51860716e+03	3.19425666e+06	1.38002614e+00	1.80483783e-05	2.47927653e-03	1.50204728e-12	2.10192916e-02
4.33277354e-01	1.19520001e-01	4.98046889e-03	1.35193337e+00	1.53915482e+05	3.00000000e+02	1.49393655e+03	4.18295086e+06	1.55346165e+00	1.79942425e-05	5.37495318e-03	4.94108104e-12	4.36808132e-02
4.32203412e-01	1.19520001e-01	4.98046889e-03	1.36292121e+00	1.56386658e+05	3.00000000e+02	1.48544699e+03	4.34627598e+06	1.55614651e+00	1.79847272e-05	5.50786919e-03	6.02555527e-12	4.46856085e-02
4.31131869e-01	1.19520001e-01	4.98046889e-03	1.37281598e+00	1.58233355e+05	3.00000000e+02	1.41219433e+03	4.42133594e+06	1.52366731e+00	1.79743679e-05	5.74779126e-03	7.12970215e-12	4.65277953e-02
4.30062726e-01	1.19520001e-01	4.98046889e-03	1.35522609e+00	1.55347238e+05	3.00000000e+02	1.30659443e+03	4.26522410e+06	1.45510116e+00	1.79876106e-05	5.97826064e-03	7.38807050e-12	4.79025246e-02
4.28995937e-01	1.19520001e-01	4.98046889e-03	1.28737182e+00	1.45459239e+05	3.00000000e+02	1.21053814e+03	3.93982904e+06	1.36407759e+00	1.80008308e-05	6.14217900e-03	6.42319894e-12	4.86884500e-02
4.27931518e-01	1.19520001e-01	4.98046889e-03	1.17628048e+00	1.30576217e+05	3.00000000e+02	1.17166959e+03	3.55598204e+06	1.28202305e+00	1.80116117e-05	6.36466672e-03	5.06978713e-12	4.99056625e-02
4.26869452e-01	1.19520001e-01	4.98046889e-03	1.06748884e+00	1.18132336e+05	3.00000000e+02	1.20637352e+03	3.43223235e+06	1.23988200e+00	1.80024908e-05	6.99838494e-03	4.81436673e-12	5.44992032e-02
4.25809741e-01	1.19520001e-01	4.98046889e-03	1.01524355e+00	1.12970772e+05	3.00000000e+02	1.23861021e+03	3.41240082e+06	1.22453799e+00	1.80123579e-05	8.21572393e-03	6.08314349e-12	6.29018889e-02
4.33277354e-01	1.19520001e-01	4.39453149e-03	1.30697160e+00	1.56380923e+05	3.00000000e+02	1.07071300e+03	4.49189201e+06	1.29513552e+00	1.79657265e-05	1.41971480e-02	1.67169119e-11	1.06808147e-01
4.32203412e-01	1.19520001e-01	4.39453149e-03	1.29838191e+00	1.56371729e+05	3.00000000e+02	1.06934961e+03	4.58879908e+06	1.28991838e+00	1.79675656e-05	1.47296260e-02	2.00920305e-11	1.10203146e-01
4.31131869e-01	1.19520001e-01	4.39453148e-03	1.29358446e+00	1.56949532e+05	3.00000000e+02	9.99858660e+02	4.64983635e+06	1.24486542e+00	1.79694458e-05	1.57770893e-02	2.40102680e-11	1.16777551e-01
4.30062726e-01	1.19520001e-01	4.39453149e-03	1.27181763e+00	1.54907245e+05	3.00000000e+02	8.96810789e+02	4.60580909e+06	1.16873040e+00	1.79737574e-05	1.69431711e-02	2.58653679e-11	1.23753157e-01
4.28995937e-01	1.19520001e-01	4.39453149e-03	1.21548884e+00	1.47520191e+05	3.00000000e+02	8.10030784e+02	4.39480514e+06	1.08557353e+00	1.79786629e-05	1.78448524e-02	2.33372218e-11	1.28701667e-01
4.27931518e-01	1.19520001e-01	4.39453148e-03	1.11796564e+00	1.34416819e+05	3.00000000e+02	7.86398411e+02	4.05286557e+06	1.02551468e+00	1.79839068e-05	1.85518182e-02	1.82284794e-11	1.32246608e-01
4.26869452e-01	1.19520001e-01	4.39453148e-03	1.00431158e+00	1.20660572e+05	3.00000000e+02	8.54088644e+02	3.85401332e+06	1.01273537e+00	1.79878855e-05	1.97994098e-02	1.55901464e-11	1.38971418e-01
4.25809741e-01	1.19520001e-01	4.39453149e-03	9.27882328e-01	1.13196693e+05	3.00000000e+02	9.04186381e+02	3.86068061e+06	1.00180124e+00	1.79839154e-05	2.25063357e-02	1.67904145e-11	1.53706206e-01
4.34353665e-01	1.19520001e-01	3.80859396e-03	1.24994646e+00	1.62145504e+05	3.00000000e+02	4.26963578e+02	3.93085564e+06	8.05188900e-01	1.78457057e-05	3.42989131e-02	3.86480432e-11	2.14088868e-01
4.33277354e-01	1.19520001e-01	3.80859396e-03	1.22358054e+00	1.58441297e+05	3.00000000e+02	4.88074686e+02	4.16643143e+06	8.50956781e-01	1.78625025e-05	3.28122375e-02	3.45748966e-11	2.09306192e-01
4.32203412e-01	1.19520001e-01	3.80859396e-03	1.19555036e+00	1.56555091e+05	3.00000000e+02	5.10492083e+02	4.27631989e+06	8.60502847e-01	1.78573296e-05	3.38278056e-02	3.91803834e-11	2.11522433e-01
4.31131870e-01	1.19520001e-01	3.80859396e-03	1.17214628e+00	1.55773909e+05	3.00000000e+02	4.62842699e+02	4.22264771e+06	8.12645768e-01	1.78277577e-05	3.63635942e-02	4.56548863e-11	2.18639906e-01
4.30062726e-01	1.19520001e-01	3.80859396e-03	1.14192654e+00	1.53801645e+05	3.00000000e+02	3.78303800e+02	4.05269866e+06	7.26863590e-01	1.77859434e-05	3.92188225e-02	4.75768430e-11	2.25625945e-01
4.28995937e-01	1.19520001e-01	3.80859396e-03	1.08521727e+00	1.47780331e+05	3.00000000e+02	3.17956256e+02	3.93060331e+06	6.50738379e-01	1.77552176e-05	4.13229533e-02	4.02701438e-11	2.29394746e-01
4.27931518e-01	1.19520001e-01	3.80859396e-03	9.90486129e-01	1.36931812e+05	3.00000000e+02	3.43354991e+02	4.05188527e+06	6.46219084e-01	1.77503323e-05	4.25899036e-02	3.57041413e-11	2.29597832e-01
4.26869452e-01	1.19520001e-01	3.80859396e-03	8.75088752e-01	1.23445684e+05	3.00000000e+02	4.82591010e+02	4.16382426e+06	7.20353596e-01	1.77443592e-05	4.44103743e-02	2.87469687e-11	2.29600716e-01
4.25809741e-01	1.19520001e-01	3.80859396e-03	7.87207079e-01	1.14174715e+05	3.00000000e+02	6.08312905e+02	4.12211957e+06	7.68911467e-01	1.77019886e-05	4.80862650e-02	2.61284038e-11	2.32284773e-01
4.34353665e-01	1.19520001e-01	3.22265644e-03	1.03558363e+00	1.63538666e+05	3.00000000e+02	3.40454847e+02	4.17736095e+06	6.70859443e-01	1.74092955e-05	6.15511816e-02	7.42787921e-11	2.42371271e-01
4.33277354e-01	1.19520001e-01	3.22265643e-03	1.02654223e+00	1.59510419e+05	3.00000000e+02	3.31683605e+02	4.00817882e+06	6.57965114e-01	1.74436728e-05	5.97429697e-02	5.34923381e-11	2.42054343e-01
4.32203412e-01	1.19520001e-01	3.22265643e-03	1.00892662e+00	1.57109365e+05	3.00000000e+02	3.36630322e+02	3.92741240e+06	6.57329616e-01	1.74386793e-05	6.02369956e-02	5.05369094e-11	2.41903986e-01
4.31131869e-01	1.19520001e-01	3.22265643e-03	9.88743396e-01	1.55815356e+05	3.00000000e+02	3.22314438e+02	3.89830852e+06	6.37849077e-01	1.74082106e-05	6.20299185e-02	5.46010928e-11	2.42002590e-01
4.30062726e-01	1.19520001e-01	3.22265643e-03	9.61668210e-01	1.53582594e+05	3.00000000e+02	2.89324196e+02	3.91017024e+06	5.97041633e-01	1.73776392e-05	6.38658880e-02	5.59397775e-11	2.41981180e-01
4.28995937e-01	1.19520001e-01	3.22265643e-03	9.14844059e-01	1.47713285e+05	3.00000000e+02	2.71222211e+02	3.98135575e+06	5.64246180e-01	1.73643255e-05	6.50170830e-02	5.22514459e-11	2.41657276e-01
4.27931517e-01	1.19520001e-01	3.22265643e-03	8.37979023e-01	1.37503837e+05	3.00000000e+02	3.16293907e+02	4.25459183e+06	5.83305978e-01	1.73602487e-05	6.60625793e-02	5.05978284e-11	2.41029079e-01
4.26869452e-01	1.19520001e-01	3.22265643e-03	7.41588932e-01	1.24091598e+05	3.00000000e+02	4.62725064e+02	4.39359591e+06	6.64450065e-01	1.73408814e-05	6.80791673e-02	4.35102068e-11	2.40390830e-01
4.25809741e-01	1.19520001e-01	3.22265643e-03	6.66691701e-01	1.14201468e+05	3.00000000e+02	6.28621513e+02	4.51851583e+06	7.35680007e-01	1.73084658e-05	7.08042665e-02	4.65085186e-11	2.39794540e-01
4.34353665e-01	1.19520001e-01	2.63671891e-03	8.47874305e-01	1.64926647e+05	3.00000000e+02	6.28529566e+02	6.29868263e+06	8.43817249e-01	1.70165133e-05	8.54404300e-02	1.90756070e-10	2.38683309e-01
4.33277354e-01	1.19520001e-01	2.63671891e-03	8.31576979e-01	1.60329614e+05	3.00000000e+02	6.21604392e+02	6.31520827e+06	8.28991525e-01	1.70588032e-05	8.36422298e-02	1.59388456e-10	2.38714843e-01
4.32203412e-01	1.19520001e-01	2.63671891e-03	8.14421857e-01	1.57100807e+05	3.00000000e+02	6.49350746e+02	6.21034906e+06	8.37456344e-01	1.70801858e-05	8.35289952e-02	1.58824882e-10	2.38295840e-01
4.31131870e-01	1.19520001e-01	2.63671891e-03	7.99821471e-01	1.55337614e+05	3.00000000e+02	6.74354194e+02	6.14037040e+06	8.45232009e-01	1.70905095e-05	8.43098349e-02	1.69716011e-10	2.37707230e-01
4.30062726e-01	1.19520001e-01	2.63671891e-03	7.83887852e-01	1.53902726e+05	3.00000000e+02	6.75217282e+02	6.29680344e+06	8.37659743e-01	1.70832888e-05	8.53780608e-02	1.84343982e-10	2.37360724e-01
4.28995937e-01	1.19520001e-01	2.63671891e-03	7.46387954e-01	1.49352103e+05	3.00000000e+02	6.75707884e+02	6.78630558e+06	8.18805630e-01	1.70596992e-05	8.67685612e-02	1.95771560e-10	2.36897090e-01
4.27931518e-01	1.19520001e-01	2.63671891e-03	6.85700321e-01	1.38905650e+05	3.00000000e+02	7.22455270e+02	6.03100354e+06	8.09907814e-01	1.70933606e-05	8.90471072e-02	2.05876114e-10	2.33643461e-01
4.26869452e-01	1.19520001e-01	2.63671891e-03	6.06229150e-01	1.24677738e+05	3.00000000e+02	8.59865025e+02	5.09491921e+06	8.32589261e-01	1.70566261e-05	9.25081878e-02	2.26732414e-10	2.16529230e-01
4.25809741e-01	1.19520001e-01	2.63671891e-03	5.47190834e-01	1.14502037e+05	3.00000000e+02	1.01771629e+03	4.47487635e+06	8.66677509e-01	1.69361865e-05	9.61602534e-02	2.74563749e-10	1.78495360e-01
4.24752399e-01	1.19520001e-01	2.63671891e-03	5.20036630e-01	1.10929052e+05	3.00000000e+02	1.10313926e+03	4.21098441e+06	8.85037404e-01	1.68329757e-05	9.96249036e-02	3.54519584e-10	1.48981268e-01
4.34353665e-01	1.19520001e-01	2.05078133e-03	7.09403373e-01	1.68676999e+05	3.00000000e+02	9.68573118e+02	6.59549964e+06	9.81252308e-01	1.66158485e-05	1.14894805e-01	6.05807007e-10	2.18822229e-01
4.33277354e-01	1.19520001e-01	2.05078133e-03	6.91642405e-01	1.63124922e+05	3.00000000e+02	9.97679091e+02	6.15466483e+06	9.83006884e-01	1.66214944e-05	1.14329592e-01	6.07750241e-10	2.11043664e-01
4.32203412e-01	1.19520001e-01	2.05078133e-03	6.71999344e-01	1.59146279e+05	3.00000000e+02	1.05383755e+03	5.73405673e+06	9.98750647e-01	1.65731313e-05	1.15659251e-01	6.87344532e-10	1.89789192e-01
4.31131870e-01	1.19520001e-01	2.05078133e-03	6.57259831e-01	1.57446028e+05	3.00000000e+02	1.09240668e+03	5.44137080e+06	1.01056461e+00	1.64925199e-05	1.18112849e-01	8.08914209e-10	1.63391164e-01
4.30062726e-01	1.19520001e-01	2.05078133e-03	6.41772793e-01	1.55878549e+05	3.00000000e+02	1.09710534e+03	5.14961248e+06	1.00570630e+00	1.64109617e-05	1.21333811e-01	9.23865475e-10	1.39574846e-01
4.28995937e-01	1.19520001e-01	2.05078133e-03	6.09015470e-01	1.50448391e+05	3.00000000e+02	1.09033130e+03	4.83901484e+06	9.82054258e-01	1.63210578e-05	1.25677830e-01	1.00344276e-09	1.16266336e-01
4.27931518e-01	1.19520001e-01	2.05078133e-03	5.48399732e-01	1.38511640e+05	3.00000000e+02	1.10285774e+03	4.27200672e+06	9.43792515e-01	1.62077310e-05	1.31579205e-01	1.04079405e-09	9.16953439e-02
4.26869452e-01	1.19520001e-01	2.05078133e-03	4.76400502e-01	1.23546611e+05	3.00000000e+02	1.17132942e+03	3.61998641e+06	9.14195854e-01	1.60722533e-05	1.38786524e-01	1.07768140e-09	6.81136918e-02
4.25809741e-01	1.19520001e-01	2.05078133e-03	4.26969444e-01	1.13901852e+05	3.00000000e+02	1.25528091e+03	3.25442614e+06	9.02451453e-01	1.59564177e-05	1.45907727e-01	1.18103397e-09	5.21282475e-02
4.24752400e-01	1.19520001e-01	2.05078133e-03	4.02420530e-01	1.10515832e+05	3.00000000e+02	1.30233729e+03	3.07139849e+06	8.98569749e-01	1.58467568e-05	1.52955076e-01	1.35398636e-09	4.22918310e-02
4.34353665e-01	1.19520001e-01	1.46484381e-03	6.05895287e-01	1.72562770e+05	3.00000000e+02	1.11617897e+03	4.35193184e+06	1.02827223e+00	1.57306977e-05	1.57966939e-01	1.44675118e-09	8.18022548e-02
4.33277354e-01	1.19520001e-01	1.46484381e-03	5.78593460e-01	1.65644526e+05	3.00000000e+02	1.13770979e+03	4.04105995e+06	1.01685398e+00	1.56940236e-05	1.60061144e-01	1.37330944e-09	7.06926050e-02
4.32203412e-01	1.19520001e-01	1.46484381e-03	5.52800748e-01	1.60812153e+05	3.00000000e+02	1.19299054e+03	3.81705583e+06	1.02230762e+00	1.56246968e-05	1.64441751e-01	1.48787858e-09	5.88354122e-02
4.31131870e-01	1.19520001e-01	1.46484381e-03	5.33271722e-01	1.58983783e+05	3.00000000e+02	1.23979574e+03	3.67824535e+06	1.02979901e+00	1.55305652e-05	1.70724438e-01	1.77333022e-09	4.77361394e-02
4.30062726e-01	1.19520001e-01	1.46484381e-03	5.12461959e-01	1.57615034e+05	3.00000000e+02	1.26935522e+03	3.59380084e+06	1.02913541e+00	1.54148842e-05	1.78700065e-01	2.22573639e-09	3.78126775e-02
4.28995937e-01	1.19520001e-01	1.46484381e-03	4.76333039e-01	1.51864078e+05	3.00000000e+02	1.29012290e+03	3.46406995e+06	1.00931413e+00	1.52768891e-05	1.88437969e-01	2.65803770e-09	2.90943767e-02
4.27931517e-01	1.19520001e-01	1.46484381e-03	4.20162491e-01	1.38922100e+05	3.00000000e+02	1.29640780e+03	3.14394854e+06	9.60015080e-01	1.51213925e-05	1.99518209e-01	2.66321870e-09	2.21105415e-02
4.26869452e-01	1.19520001e-01	1.46484381e-03	3.64237203e-01	1.24538188e+05	3.00000000e+02	1.30834064e+03	2.76450964e+06	9.07278484e-01	1.49658828e-05	2.10521124e-01	2.38257700e-09	1.75331700e-02
4.25809741e-01	1.19520001e-01	1.46484381e-03	3.27327145e-01	1.15473372e+05	3.00000000e+02	1.33928725e+03	2.52090483e+06	8.78727816e-01	1.48205353e-05	2.20701008e-01	2.33193842e-09	1.48389845e-02
4.24752400e-01	1.19520001e-01	1.46484381e-03	3.06761102e-01	1.12028512e+05	3.00000000e+02	1.36883536e+03	2.38914688e+06	8.69230166e-01	1.46632874e-05	2.31761708e-01	2.55140065e-09	1.27798183e-02
4.34353664e-01	1.19520001e-01	8.78906286e-04	4.68930642e-01	1.74346822e+05	3.00000000e+02	1.14056071e+03	2.95118712e+06	9.86442670e-01	1.45825020e-05	2.35119256e-01	2.86553503e-09	1.97556831e-02
4.33277354e-01	1.19520001e-01	8.78906286e-04	4.43269148e-01	1.66937819e+05	3.00000000e+02	1.13401686e+03	2.72881664e+06	9.60307597e-01	1.45219029e-05	2.40079110e-01	2.48957547e-09	1.68271936e-02
4.32203412e-01	1.19520001e-01	8.78906287e-04	4.19506000e-01	1.61520801e+05	3.00000000e+02	1.14873965e+03	2.53699450e+06	9.46922625e-01	1.44196854e-05	2.47983219e-01	2.37205128e-09	1.40402509e-02
4.31131870e-01	1.19520001e-01	8.78906287e-04	4.00759069e-01	1.59285274e+05	3.00000000e+02	1.15273443e+03	2.39970552e+06	9.36529633e-01	1.42749690e-05	2.59066445e-01	2.52774948e-09	1.14402460e-02
4.30062726e-01	1.19520001e-01	8.78906287e-04	3.80229949e-01	1.57219767e+05	3.00000000e+02	1.12766830e+03	2.27928993e+06	9.13983918e-01	1.40917743e-05	2.73156971e-01	2.76971810e-09	9.18064534e-03
4.28995937e-01	1.19520001e-01	8.78906287e-04	3.48975838e-01	1.50633162e+05	3.00000000e+02	1.07381158e+03	2.09901636e+06	8.67193837e-01	1.38846815e-05	2.89411306e-01	2.70579983e-09	7.40002601e-03