VARIABLES ="X" "Y" "Z" "rho" "press" "temp" "tau_wall" "qdot" "yplus" "muLam" "ZMean" "ZVar" "CMean" 
Zone T ="wall" I = 8632 , F = point
5.68622500e-01	1.29320011e-01	4.39453148e-03	1.87890026e+00	2.15572662e+05	3.00000000e+02	2.65084175e+03	6.09001626e+06	1.81959008e+00	1.82098262e-05	4.13901663e-06	7.87716541e-15	3.38225470e-05
5.68622500e-01	1.29320011e-01	4.98046889e-03	1.83086449e+00	2.09184405e+05	3.00000000e+02	2.64791338e+03	5.98620620e+06	1.79518756e+00	1.82098243e-05	1.40827558e-06	2.30092968e-15	1.12295162e-05
5.86769879e-01	1.29320011e-01	2.92968761e-04	1.74431444e+00	1.95035115e+05	3.00000000e+02	2.21453595e+03	5.38758645e+06	1.60604329e+00	1.81690452e-05	9.60872876e-04	8.75627015e-13	9.11962713e-03
5.85355252e-01	1.29320011e-01	2.92968761e-04	1.71873245e+00	1.91420724e+05	3.00000000e+02	2.21123177e+03	5.29370090e+06	1.59278285e+00	1.81718983e-05	9.02963183e-04	7.73242599e-13	8.55145037e-03
5.83943754e-01	1.29320011e-01	2.92968761e-04	1.69997921e+00	1.88689329e+05	3.00000000e+02	2.21044724e+03	5.20916030e+06	1.58326409e+00	1.81779170e-05	8.48815938e-04	6.90860301e-13	8.10196251e-03
5.82535386e-01	1.29320011e-01	2.92968761e-04	1.68400187e+00	1.86385530e+05	3.00000000e+02	2.21522748e+03	5.14087505e+06	1.57713362e+00	1.81822471e-05	7.98068918e-04	6.27821206e-13	7.69841822e-03
5.81130147e-01	1.29320011e-01	2.92968761e-04	1.67218555e+00	1.84705681e+05	3.00000000e+02	2.22542393e+03	5.09519365e+06	1.57496867e+00	1.81849574e-05	7.50135616e-04	5.80376853e-13	7.33513873e-03
5.79728007e-01	1.29320011e-01	2.92968761e-04	1.66591508e+00	1.83816631e+05	3.00000000e+02	2.24408932e+03	5.07446891e+06	1.57847774e+00	1.81862701e-05	7.04521976e-04	5.48593499e-13	6.99392691e-03
5.78328996e-01	1.29320011e-01	2.92968761e-04	1.67036639e+00	1.84408679e+05	3.00000000e+02	2.27464555e+03	5.09305544e+06	1.59124143e+00	1.81870499e-05	6.60686581e-04	5.36726138e-13	6.62952142e-03
5.76933116e-01	1.29320011e-01	2.92968761e-04	1.69139659e+00	1.87228036e+05	3.00000000e+02	2.31580716e+03	5.16317450e+06	1.61563354e+00	1.81872341e-05	6.17946323e-04	5.46774518e-13	6.23897803e-03
5.75540334e-01	1.29320011e-01	2.92968761e-04	1.73305453e+00	1.92826034e+05	3.00000000e+02	2.36594740e+03	5.29396951e+06	1.65306382e+00	1.81867305e-05	5.75676111e-04	5.80762747e-13	5.82148286e-03
5.74150622e-01	1.29320011e-01	2.92968761e-04	1.80029521e+00	2.01941654e+05	3.00000000e+02	2.42075788e+03	5.49936788e+06	1.70435376e+00	1.81854224e-05	5.33364981e-04	6.43552992e-13	5.38358970e-03
5.72763980e-01	1.29320011e-01	2.92968761e-04	1.89503011e+00	2.14855781e+05	3.00000000e+02	2.46565042e+03	5.77076709e+06	1.76496404e+00	1.81833352e-05	4.90595038e-04	7.29089285e-13	4.94809651e-03
5.71380437e-01	1.29320011e-01	2.92968761e-04	2.01007003e+00	2.30526287e+05	3.00000000e+02	2.48429870e+03	6.05788200e+06	1.82436363e+00	1.81857698e-05	4.47533203e-04	8.26146633e-13	4.56342858e-03
5.69999934e-01	1.29320011e-01	2.92968761e-04	2.12518558e+00	2.46089464e+05	3.00000000e+02	2.46232426e+03	6.29814748e+06	1.86695738e+00	1.81916564e-05	4.04733974e-04	9.11963245e-13	4.22328776e-03
5.68622500e-01	1.29320011e-01	2.92968761e-04	2.21313804e+00	2.57854829e+05	3.00000000e+02	2.40020083e+03	6.45252269e+06	1.88045472e+00	1.81970404e-05	3.62882905e-04	9.51587396e-13	3.86632443e-03
5.86769879e-01	1.29320011e-01	8.78906286e-04	1.74586912e+00	1.95493982e+05	3.00000000e+02	2.24227641e+03	5.42450430e+06	1.61630845e+00	1.81744706e-05	8.81013375e-04	8.29526218e-13	8.37030949e-03
5.85355252e-01	1.29320011e-01	8.78906286e-04	1.71745921e+00	1.91531545e+05	3.00000000e+02	2.24734969e+03	5.32411935e+06	1.60442703e+00	1.81800122e-05	8.25353152e-04	7.38728754e-13	7.91927795e-03
5.83943754e-01	1.29320011e-01	8.78906286e-04	1.69695603e+00	1.88644532e+05	3.00000000e+02	2.25089846e+03	5.24823548e+06	1.59574084e+00	1.81838769e-05	7.72949037e-04	6.67482039e-13	7.50995651e-03
5.82535386e-01	1.29320011e-01	8.78906287e-04	1.68093574e+00	1.86350639e+05	3.00000000e+02	2.25425117e+03	5.18626579e+06	1.58921110e+00	1.81857290e-05	7.23628065e-04	6.06752445e-13	7.14883078e-03
5.81130147e-01	1.29320011e-01	8.78906286e-04	1.66966177e+00	1.84731521e+05	3.00000000e+02	2.26294615e+03	5.14342533e+06	1.58683519e+00	1.81867517e-05	6.77235231e-04	5.60064844e-13	6.78422662e-03
5.79728007e-01	1.29320011e-01	8.78906286e-04	1.66474490e+00	1.84017948e+05	3.00000000e+02	2.27986216e+03	5.12698437e+06	1.59037126e+00	1.81871739e-05	6.33187513e-04	5.28231812e-13	6.39816488e-03
5.78328997e-01	1.29320011e-01	8.78906287e-04	1.67075020e+00	1.84792012e+05	3.00000000e+02	2.30644627e+03	5.14763011e+06	1.60251975e+00	1.81869402e-05	5.90870782e-04	5.12056548e-13	5.99250974e-03
5.76933116e-01	1.29320011e-01	8.78906287e-04	1.69297720e+00	1.87738714e+05	3.00000000e+02	2.34195730e+03	5.21738430e+06	1.62560051e+00	1.81859843e-05	5.49594507e-04	5.13203216e-13	5.57106961e-03
5.75540334e-01	1.29320011e-01	8.78906286e-04	1.73541518e+00	1.93374805e+05	3.00000000e+02	2.38402832e+03	5.34180789e+06	1.66072632e+00	1.81842305e-05	5.08719223e-04	5.30477273e-13	5.14799034e-03
5.74150622e-01	1.29320011e-01	8.78906286e-04	1.80219572e+00	2.02328845e+05	3.00000000e+02	2.43100249e+03	5.53012355e+06	1.70899441e+00	1.81839670e-05	4.67895055e-04	5.67102164e-13	4.75634214e-03
5.72763980e-01	1.29320011e-01	8.78906287e-04	1.89473947e+00	2.14819120e+05	3.00000000e+02	2.47644139e+03	5.77109197e+06	1.76819125e+00	1.81884269e-05	4.27045273e-04	6.28253042e-13	4.42118843e-03
5.71380436e-01	1.29320011e-01	8.78906286e-04	2.00422180e+00	2.29678873e+05	3.00000000e+02	2.50025738e+03	6.03575923e+06	1.82674398e+00	1.81937893e-05	3.86275554e-04	7.04692826e-13	4.09637728e-03
5.69999934e-01	1.29320011e-01	8.78906286e-04	2.11122724e+00	2.44175995e+05	3.00000000e+02	2.48387851e+03	6.26564614e+06	1.86821589e+00	1.81987350e-05	3.46079598e-04	7.69003140e-13	3.75057566e-03
5.68622500e-01	1.29320011e-01	8.78906286e-04	2.19179118e+00	2.55056902e+05	3.00000000e+02	2.43198553e+03	6.42073647e+06	1.88308193e+00	1.82031464e-05	3.07665495e-04	7.99031200e-13	3.38395578e-03
5.86769879e-01	1.29320011e-01	1.46484381e-03	1.75101827e+00	1.96210379e+05	3.00000000e+02	2.28114173e+03	5.44601402e+06	1.63169101e+00	1.81852447e-05	7.35503459e-04	7.35422194e-13	7.25778410e-03
5.85355252e-01	1.29320011e-01	1.46484381e-03	1.71768093e+00	1.91701148e+05	3.00000000e+02	2.28694514e+03	5.35329928e+06	1.61802676e+00	1.81864954e-05	6.85275760e-04	6.57065443e-13	6.87217419e-03
5.83943754e-01	1.29320011e-01	1.46484381e-03	1.69466170e+00	1.88530495e+05	3.00000000e+02	2.28910663e+03	5.28191873e+06	1.60785793e+00	1.81870577e-05	6.37178100e-04	5.91603237e-13	6.45870892e-03
5.82535386e-01	1.29320011e-01	1.46484381e-03	1.67816765e+00	1.86195037e+05	3.00000000e+02	2.28953588e+03	5.22336928e+06	1.60018109e+00	1.81868658e-05	5.91813040e-04	5.33265585e-13	6.02858910e-03
5.81130147e-01	1.29320011e-01	1.46484381e-03	1.66772703e+00	1.84677544e+05	3.00000000e+02	2.29296673e+03	5.18331793e+06	1.59647413e+00	1.81859114e-05	5.49393153e-04	4.84927145e-13	5.59832215e-03
5.79728007e-01	1.29320011e-01	1.46484381e-03	1.66466495e+00	1.84167149e+05	3.00000000e+02	2.30323872e+03	5.16820088e+06	1.59872424e+00	1.81842306e-05	5.09486588e-04	4.47104780e-13	5.18688217e-03
5.78328997e-01	1.29320011e-01	1.46484381e-03	1.67299977e+00	1.85201202e+05	3.00000000e+02	2.32433320e+03	5.18846909e+06	1.61011239e+00	1.81834606e-05	4.71478228e-04	4.21271209e-13	4.82051338e-03
5.76933116e-01	1.29320011e-01	1.46484381e-03	1.69707720e+00	1.88362281e+05	3.00000000e+02	2.36130416e+03	5.25202838e+06	1.63418530e+00	1.81869998e-05	4.34639383e-04	4.13755250e-13	4.51304970e-03
5.75540334e-01	1.29320011e-01	1.46484381e-03	1.74000074e+00	1.94089403e+05	3.00000000e+02	2.41260175e+03	5.37093899e+06	1.67214631e+00	1.81919334e-05	3.98105886e-04	4.27123866e-13	4.22359207e-03
5.74150622e-01	1.29320011e-01	1.46484381e-03	1.80496841e+00	2.02852380e+05	3.00000000e+02	2.46802861e+03	5.55288216e+06	1.72208868e+00	1.81965888e-05	3.61151066e-04	4.57698284e-13	3.91672565e-03
5.72763980e-01	1.29320011e-01	1.46484381e-03	1.89193484e+00	2.14646297e+05	3.00000000e+02	2.51470186e+03	5.78506384e+06	1.77925283e+00	1.82009589e-05	3.23571516e-04	4.99508515e-13	3.58415807e-03
5.71380437e-01	1.29320011e-01	1.46484381e-03	1.99216188e+00	2.28299502e+05	3.00000000e+02	2.53767973e+03	6.03477286e+06	1.83369139e+00	1.82049742e-05	2.85905041e-04	5.44651696e-13	3.21840699e-03
5.69999933e-01	1.29320011e-01	1.46484381e-03	2.08820964e+00	2.41404682e+05	3.00000000e+02	2.52676169e+03	6.25428539e+06	1.87297013e+00	1.82084901e-05	2.49575173e-04	5.80170814e-13	2.81970123e-03
5.68622500e-01	1.29320011e-01	1.46484381e-03	2.15981877e+00	2.51179197e+05	3.00000000e+02	2.48434267e+03	6.40682586e+06	1.88851616e+00	1.82108114e-05	2.16756667e-04	5.93302664e-13	2.40260320e-03
5.88187665e-01	1.29320011e-01	2.05078133e-03	1.81749815e+00	2.05064385e+05	3.00000000e+02	2.30348496e+03	5.63285612e+06	1.67035981e+00	1.81867562e-05	5.95937317e-04	6.75944429e-13	6.11684438e-03
5.86769879e-01	1.29320011e-01	2.05078133e-03	1.75924201e+00	1.97356397e+05	3.00000000e+02	2.31046403e+03	5.49824091e+06	1.64592848e+00	1.81859937e-05	5.55181782e-04	5.90411231e-13	5.69842266e-03
5.85355252e-01	1.29320011e-01	2.05078133e-03	1.71940910e+00	1.91998619e+05	3.00000000e+02	2.30927194e+03	5.39278905e+06	1.62691538e+00	1.81843500e-05	5.12994181e-04	5.13064701e-13	5.26594851e-03
5.83943754e-01	1.29320011e-01	2.05078133e-03	1.69286553e+00	1.88341287e+05	3.00000000e+02	2.30548327e+03	5.31022657e+06	1.61310849e+00	1.81829455e-05	4.72101518e-04	4.45332821e-13	4.86903820e-03
5.82535386e-01	1.29320011e-01	2.05078133e-03	1.67581714e+00	1.85945476e+05	3.00000000e+02	2.30887788e+03	5.24518080e+06	1.60582246e+00	1.81866146e-05	4.33901021e-04	3.92128240e-13	4.54930919e-03
5.81130147e-01	1.29320011e-01	2.05078133e-03	1.66681071e+00	1.84664453e+05	3.00000000e+02	2.32436983e+03	5.20668239e+06	1.60644161e+00	1.81914119e-05	3.98814781e-04	3.56920197e-13	4.26861393e-03
5.79728007e-01	1.29320011e-01	2.05078133e-03	1.66641563e+00	1.84585426e+05	3.00000000e+02	2.34790667e+03	5.20103306e+06	1.61399117e+00	1.81956060e-05	3.66218040e-04	3.33411084e-13	3.99558484e-03
5.78328997e-01	1.29320011e-01	2.05078133e-03	1.67768841e+00	1.86082727e+05	3.00000000e+02	2.37952877e+03	5.23276233e+06	1.62997648e+00	1.81993296e-05	3.35235602e-04	3.19674439e-13	3.72304020e-03
5.76933116e-01	1.29320011e-01	2.05078133e-03	1.70352228e+00	1.89535205e+05	3.00000000e+02	2.41913314e+03	5.30764425e+06	1.65578070e+00	1.82027320e-05	3.04862139e-04	3.14961603e-13	3.43791643e-03
5.75540334e-01	1.29320011e-01	2.05078133e-03	1.74619673e+00	1.95243576e+05	3.00000000e+02	2.46429113e+03	5.42759781e+06	1.69167251e+00	1.82058893e-05	2.74265529e-04	3.17729636e-13	3.12779123e-03
5.74150622e-01	1.29320011e-01	2.05078133e-03	1.80752864e+00	2.03492993e+05	3.00000000e+02	2.51020737e+03	5.59584183e+06	1.73680711e+00	1.82088032e-05	2.43089846e-04	3.26995699e-13	2.78070799e-03
5.72763979e-01	1.29320011e-01	2.05078133e-03	1.88603549e+00	2.14082741e+05	3.00000000e+02	2.54659388e+03	5.79985850e+06	1.78674156e+00	1.82107836e-05	2.11578234e-04	3.38888422e-13	2.39091227e-03
5.71380436e-01	1.29320011e-01	2.05078133e-03	1.97290768e+00	2.25877463e+05	3.00000000e+02	2.56196443e+03	6.01792824e+06	1.83296082e+00	1.82105199e-05	1.80789597e-04	3.48564829e-13	1.97999293e-03
5.69999933e-01	1.29320011e-01	2.05078133e-03	2.05418214e+00	2.36998311e+05	3.00000000e+02	2.55272158e+03	6.21436460e+06	1.86697829e+00	1.82103180e-05	1.52503649e-04	3.52624408e-13	1.60993490e-03
5.68622500e-01	1.29320011e-01	2.05078133e-03	2.11452227e+00	2.45349183e+05	3.00000000e+02	2.52124469e+03	6.36049126e+06	1.88250040e+00	1.82101763e-05	1.28582703e-04	3.48156304e-13	1.30466313e-03
5.89608640e-01	1.29320011e-01	2.63671891e-03	1.93065805e+00	2.19951885e+05	3.00000000e+02	2.31274417e+03	5.89265433e+06	1.72498485e+00	1.81872396e-05	4.24937866e-04	5.25571137e-13	4.53364656e-03
5.88187664e-01	1.29320011e-01	2.63671891e-03	1.84223217e+00	2.08155376e+05	3.00000000e+02	2.31739605e+03	5.68745433e+06	1.68644140e+00	1.81901656e-05	4.04033075e-04	4.51678083e-13	4.36121834e-03
5.86769879e-01	1.29320011e-01	2.63671891e-03	1.77288162e+00	1.99024692e+05	3.00000000e+02	2.33215509e+03	5.52708109e+06	1.65932150e+00	1.81938093e-05	3.76508356e-04	3.91471865e-13	4.13135110e-03
5.85355252e-01	1.29320011e-01	2.63671891e-03	1.72469660e+00	1.92695516e+05	3.00000000e+02	2.34586848e+03	5.41003211e+06	1.64107897e+00	1.81976078e-05	3.46185594e-04	3.42999882e-13	3.86579886e-03
5.83943754e-01	1.29320011e-01	2.63671891e-03	1.69308354e+00	1.88520015e+05	3.00000000e+02	2.35718763e+03	5.32689173e+06	1.62957163e+00	1.82011325e-05	3.15964087e-04	3.03145861e-13	3.58719188e-03
5.82535386e-01	1.29320011e-01	2.63671891e-03	1.67409620e+00	1.85987848e+05	3.00000000e+02	2.36954553e+03	5.27259354e+06	1.62437584e+00	1.82042088e-05	2.87382796e-04	2.70918653e-13	3.30740812e-03
5.81130147e-01	1.29320011e-01	2.63671891e-03	1.66606942e+00	1.84906063e+05	3.00000000e+02	2.38610002e+03	5.24814925e+06	1.62589308e+00	1.82068361e-05	2.60870360e-04	2.46230759e-13	3.02811649e-03
5.79728007e-01	1.29320011e-01	2.63671891e-03	1.66887742e+00	1.85272271e+05	3.00000000e+02	2.40859281e+03	5.25588945e+06	1.63471329e+00	1.82090763e-05	2.36136105e-04	2.28151327e-13	2.74559897e-03
5.78328996e-01	1.29320011e-01	2.63671891e-03	1.68391662e+00	1.87255935e+05	3.00000000e+02	2.43662976e+03	5.29755934e+06	1.65143470e+00	1.82108097e-05	2.12529519e-04	2.15379140e-13	2.45207107e-03
5.76933116e-01	1.29320011e-01	2.63671891e-03	1.71188971e+00	1.90961675e+05	3.00000000e+02	2.46830689e+03	5.37669128e+06	1.67590246e+00	1.82106030e-05	1.89310302e-04	2.05968565e-13	2.14027283e-03
5.75540334e-01	1.29320011e-01	2.63671891e-03	1.75348221e+00	1.96497994e+05	3.00000000e+02	2.50215366e+03	5.49128543e+06	1.70774583e+00	1.82104230e-05	1.65986693e-04	1.98542633e-13	1.83482489e-03
5.74150622e-01	1.29320011e-01	2.63671891e-03	1.80915458e+00	2.03931636e+05	3.00000000e+02	2.53425311e+03	5.63815505e+06	1.74575018e+00	1.82102678e-05	1.42542034e-04	1.92021573e-13	1.53349294e-03
5.72763980e-01	1.29320011e-01	2.63671891e-03	1.87588873e+00	2.12910271e+05	3.00000000e+02	2.55903560e+03	5.80997023e+06	1.78633958e+00	1.82101397e-05	1.19531217e-04	1.85564810e-13	1.24419718e-03
5.71380436e-01	1.29320011e-01	2.63671891e-03	1.94630721e+00	2.22498767e+05	3.00000000e+02	2.57195500e+03	5.99092634e+06	1.82415628e+00	1.82100414e-05	9.80828689e-05	1.79166777e-13	9.83676962e-04
5.69999934e-01	1.29320011e-01	2.63671891e-03	2.01068962e+00	2.31404005e+05	3.00000000e+02	2.57099691e+03	6.16014687e+06	1.85374333e+00	1.82099726e-05	7.95635324e-05	1.72693518e-13	7.69449161e-04
5.68622500e-01	1.29320011e-01	2.63671891e-03	2.05936921e+00	2.38296367e+05	3.00000000e+02	2.55732185e+03	6.29791207e+06	1.87105762e+00	1.82099283e-05	6.49999959e-05	1.66220393e-13	6.08748808e-04
5.89608640e-01	1.29320011e-01	3.22265644e-03	1.96394520e+00	2.24692427e+05	3.00000000e+02	2.38571588e+03	5.99485254e+06	1.76513895e+00	1.82066793e-05	2.55798163e-04	3.29366596e-13	3.05663419e-03
5.88187665e-01	1.29320011e-01	3.22265643e-03	1.87173361e+00	2.12180884e+05	3.00000000e+02	2.37175228e+03	5.76654491e+06	1.71805702e+00	1.82076840e-05	2.45709039e-04	2.83234539e-13	2.93399654e-03
5.86769879e-01	1.29320011e-01	3.22265643e-03	1.79090913e+00	2.01507757e+05	3.00000000e+02	2.37961995e+03	5.58315386e+06	1.68320404e+00	1.82091389e-05	2.29922917e-04	2.43192345e-13	2.73917073e-03
5.85355252e-01	1.29320011e-01	3.22265644e-03	1.73292676e+00	1.93914772e+05	3.00000000e+02	2.39121908e+03	5.44950431e+06	1.65961555e+00	1.82107523e-05	2.10752101e-04	2.10352767e-13	2.49001546e-03
5.83943754e-01	1.29320011e-01	3.22265643e-03	1.69539748e+00	1.89010044e+05	3.00000000e+02	2.40258589e+03	5.36202364e+06	1.64545431e+00	1.82106310e-05	1.90704803e-04	1.83708469e-13	2.21052864e-03
5.82535386e-01	1.29320011e-01	3.22265644e-03	1.67436188e+00	1.86271297e+05	3.00000000e+02	2.41540865e+03	5.31376360e+06	1.63958642e+00	1.82104744e-05	1.71314075e-04	1.62258560e-13	1.94844620e-03
5.81130147e-01	1.29320011e-01	3.22265643e-03	1.66756543e+00	1.85395232e+05	3.00000000e+02	2.43185968e+03	5.30070577e+06	1.64182979e+00	1.82103446e-05	1.53118869e-04	1.45310066e-13	1.70801328e-03
5.79728007e-01	1.29320011e-01	3.22265643e-03	1.67356288e+00	1.86205069e+05	3.00000000e+02	2.45262544e+03	5.32161667e+06	1.65179681e+00	1.82102373e-05	1.36052211e-04	1.32050155e-13	1.48728991e-03
5.78328996e-01	1.29320011e-01	3.22265644e-03	1.69187351e+00	1.88636630e+05	3.00000000e+02	2.47640728e+03	5.37440280e+06	1.66884929e+00	1.82101474e-05	1.19743531e-04	1.21246042e-13	1.28079521e-03
5.76933116e-01	1.29320011e-01	3.22265643e-03	1.72124518e+00	1.92526926e+05	3.00000000e+02	2.50120936e+03	5.45411010e+06	1.69168831e+00	1.82100710e-05	1.03815258e-04	1.11597515e-13	1.08368647e-03
5.75540334e-01	1.29320011e-01	3.22265643e-03	1.76045031e+00	1.97715211e+05	3.00000000e+02	2.52494450e+03	5.55511542e+06	1.71895021e+00	1.82100066e-05	8.81132071e-05	1.02142629e-13	8.95390860e-04
5.74150622e-01	1.29320011e-01	3.22265644e-03	1.80801099e+00	2.04034460e+05	3.00000000e+02	2.54589588e+03	5.67435663e+06	1.74923275e+00	1.82099540e-05	7.28440479e-05	9.27635521e-14	7.18754043e-04
5.72763980e-01	1.29320011e-01	3.22265644e-03	1.86039026e+00	2.11081170e+05	3.00000000e+02	2.56339019e+03	5.80853615e+06	1.78048002e+00	1.82099133e-05	5.85777753e-05	8.39760666e-14	5.60358108e-04
5.71380437e-01	1.29320011e-01	3.22265643e-03	1.91243387e+00	2.18240419e+05	3.00000000e+02	2.57783721e+03	5.95232712e+06	1.81029508e+00	1.82098842e-05	4.60990441e-05	7.66265222e-14	4.27788107e-04
5.69999933e-01	1.29320011e-01	3.22265643e-03	1.95931669e+00	2.24911055e+05	3.00000000e+02	2.58978945e+03	6.09976459e+06	1.83659509e+00	1.82098650e-05	3.60641725e-05	7.12281906e-14	3.25530017e-04
5.68622500e-01	1.29320011e-01	3.22265643e-03	1.99776922e+00	2.30576175e+05	3.00000000e+02	2.59689005e+03	6.23656981e+06	1.85707137e+00	1.82098531e-05	2.86947652e-05	6.76997795e-14	2.52885331e-04
5.89608640e-01	1.29320011e-01	3.80859396e-03	1.99530448e+00	2.29320124e+05	3.00000000e+02	2.44039207e+03	6.11941271e+06	1.79909448e+00	1.82102545e-05	1.36226811e-04	1.77529433e-13	1.56217117e-03
5.88187664e-01	1.29320011e-01	3.80859396e-03	1.90477430e+00	2.16708606e+05	3.00000000e+02	2.40473923e+03	5.86767259e+06	1.74492197e+00	1.82102262e-05	1.32082393e-04	1.50801532e-13	1.49201138e-03
5.86769879e-01	1.29320011e-01	3.80859396e-03	1.81467155e+00	2.04691821e+05	3.00000000e+02	2.40307905e+03	5.65692058e+06	1.70256759e+00	1.82101817e-05	1.24621604e-04	1.27496936e-13	1.38469509e-03
5.85355252e-01	1.29320011e-01	3.80859396e-03	1.74644818e+00	1.95773670e+05	3.00000000e+02	2.41352446e+03	5.50598729e+06	1.67388775e+00	1.82101269e-05	1.14386513e-04	1.08859259e-13	1.24848492e-03
5.83943754e-01	1.29320011e-01	3.80859396e-03	1.70218926e+00	1.90067498e+05	3.00000000e+02	2.42824769e+03	5.41231532e+06	1.65757942e+00	1.82100722e-05	1.02964219e-04	9.41810446e-14	1.10272029e-03
5.82535386e-01	1.29320011e-01	3.80859396e-03	1.67852043e+00	1.87067357e+05	3.00000000e+02	2.44569165e+03	5.36748336e+06	1.65192096e+00	1.82100232e-05	9.14595870e-05	8.25935177e-14	9.60195757e-04
5.81130147e-01	1.29320011e-01	3.80859396e-03	1.67239178e+00	1.86342827e+05	3.00000000e+02	2.46512876e+03	5.36341217e+06	1.65544556e+00	1.82099817e-05	8.04178370e-05	7.31328226e-14	8.27440782e-04
5.79728007e-01	1.29320011e-01	3.80859396e-03	1.68082069e+00	1.87502625e+05	3.00000000e+02	2.48579862e+03	5.39313167e+06	1.66655854e+00	1.82099472e-05	6.99364740e-05	6.51603983e-14	7.05008706e-04
5.78328996e-01	1.29320011e-01	3.80859396e-03	1.70130011e+00	1.90221116e+05	3.00000000e+02	2.50581745e+03	5.44963660e+06	1.68342114e+00	1.82099184e-05	5.99190713e-05	5.80084389e-14	5.91328454e-04
5.76933116e-01	1.29320011e-01	3.80859396e-03	1.73047829e+00	1.94058107e+05	3.00000000e+02	2.52311602e+03	5.52277386e+06	1.70364796e+00	1.82098944e-05	5.02865723e-05	5.10787388e-14	4.85247225e-04
5.75540334e-01	1.29320011e-01	3.80859396e-03	1.76522858e+00	1.98617547e+05	3.00000000e+02	2.53716681e+03	5.60521596e+06	1.72545493e+00	1.82098749e-05	4.10994375e-05	4.42472895e-14	3.87238356e-04
5.74150622e-01	1.29320011e-01	3.80859396e-03	1.80264930e+00	2.03564204e+05	3.00000000e+02	2.54924291e+03	5.69473882e+06	1.74779395e+00	1.82098596e-05	3.25995382e-05	3.78315465e-14	2.99645667e-04
5.72763980e-01	1.29320011e-01	3.80859396e-03	1.83945627e+00	2.08541659e+05	3.00000000e+02	2.56241627e+03	5.79236993e+06	1.77010425e+00	1.82098483e-05	2.51503783e-05	3.23601562e-14	2.25597670e-04
5.71380436e-01	1.29320011e-01	3.80859396e-03	1.87340777e+00	2.13344444e+05	3.00000000e+02	2.58074575e+03	5.90347420e+06	1.79274378e+00	1.82098404e-05	1.90879867e-05	2.82808648e-14	1.67364188e-04
5.69999934e-01	1.29320011e-01	3.80859396e-03	1.90467958e+00	2.18023452e+05	3.00000000e+02	2.60539645e+03	6.03134513e+06	1.81625762e+00	1.82098354e-05	1.45396012e-05	2.56994873e-14	1.24904039e-04
5.68622500e-01	1.29320011e-01	3.80859396e-03	1.93577577e+00	2.22820882e+05	3.00000000e+02	2.63136945e+03	6.17056149e+06	1.84012824e+00	1.82098322e-05	1.13680292e-05	2.43433453e-14	9.58995716e-05
5.89608640e-01	1.29320011e-01	4.39453149e-03	2.02119193e+00	2.33376666e+05	3.00000000e+02	2.48546428e+03	6.24384534e+06	1.82740485e+00	1.82099337e-05	6.42153303e-05	8.16086471e-14	6.72822272e-04
5.88187665e-01	1.29320011e-01	4.39453149e-03	1.93777227e+00	2.21422761e+05	3.00000000e+02	2.43334308e+03	5.98332250e+06	1.77043668e+00	1.82099284e-05	6.25904610e-05	6.88616907e-14	6.48327949e-04
5.86769879e-01	1.29320011e-01	4.39453149e-03	1.84333341e+00	2.08607306e+05	3.00000000e+02	2.41943764e+03	5.74489607e+06	1.72181594e+00	1.82099199e-05	5.96849515e-05	5.75791600e-14	6.10459558e-04
5.85355252e-01	1.29320011e-01	4.39453149e-03	1.76641276e+00	1.98504205e+05	3.00000000e+02	2.42837769e+03	5.57342718e+06	1.68862053e+00	1.82099077e-05	5.51788466e-05	4.88564677e-14	5.56374543e-04
5.83943754e-01	1.29320011e-01	4.39453148e-03	1.71549279e+00	1.91959968e+05	3.00000000e+02	2.44576691e+03	5.46997829e+06	1.67005262e+00	1.82098942e-05	4.96572850e-05	4.20995529e-14	4.92984566e-04
5.82535386e-01	1.29320011e-01	4.39453148e-03	1.68862250e+00	1.88595491e+05	3.00000000e+02	2.46675249e+03	5.42462709e+06	1.66401624e+00	1.82098811e-05	4.37512215e-05	3.67002882e-14	4.27279175e-04
5.81130147e-01	1.29320011e-01	4.39453148e-03	1.68208734e+00	1.87866538e+05	3.00000000e+02	2.48826284e+03	5.42537373e+06	1.66801966e+00	1.82098694e-05	3.78519440e-05	3.20850506e-14	3.63399407e-04
5.79728007e-01	1.29320011e-01	4.39453148e-03	1.69131072e+00	1.89145208e+05	3.00000000e+02	2.50761458e+03	5.45785567e+06	1.67907889e+00	1.82098593e-05	3.21466945e-05	2.79053574e-14	3.03192054e-04
5.78328996e-01	1.29320011e-01	4.39453149e-03	1.71189912e+00	1.91858992e+05	3.00000000e+02	2.52258360e+03	5.51054413e+06	1.69430299e+00	1.82098508e-05	2.67048744e-05	2.39238464e-14	2.47243973e-04
5.76933116e-01	1.29320011e-01	4.39453148e-03	1.73865626e+00	1.95334544e+05	3.00000000e+02	2.53187195e+03	5.57055422e+06	1.71063405e+00	1.82098437e-05	2.15997457e-05	2.00444314e-14	1.96159123e-04
5.75540334e-01	1.29320011e-01	4.39453148e-03	1.76684510e+00	1.98980960e+05	3.00000000e+02	2.53687913e+03	5.62988905e+06	1.72615043e+00	1.82098381e-05	1.69483995e-05	1.64087801e-14	1.50901315e-04
5.74150622e-01	1.29320011e-01	4.39453149e-03	1.79277291e+00	2.02380893e+05	3.00000000e+02	2.54175743e+03	5.68836767e+06	1.74044101e+00	1.82098338e-05	1.29050574e-05	1.32706113e-14	1.12663746e-04
5.72763980e-01	1.29320011e-01	4.39453149e-03	1.81425339e+00	2.05341418e+05	3.00000000e+02	2.55274500e+03	5.75274795e+06	1.75461719e+00	1.82098306e-05	9.60802053e-06	1.08516601e-14	8.23233141e-05
5.71380437e-01	1.29320011e-01	4.39453149e-03	1.83240523e+00	2.08096240e+05	3.00000000e+02	2.57560537e+03	5.83593308e+06	1.77125122e+00	1.82098285e-05	7.10993926e-06	9.23203155e-15	5.98778527e-05
5.69999933e-01	1.29320011e-01	4.39453148e-03	1.85186665e+00	2.11259602e+05	3.00000000e+02	2.61075556e+03	5.94784348e+06	1.79274176e+00	1.82098271e-05	5.33919600e-06	8.31052878e-15	4.42641086e-05
5.88187664e-01	1.29320011e-01	4.98046889e-03	1.96793270e+00	2.25889742e+05	3.00000000e+02	2.46394598e+03	6.09944364e+06	1.79535328e+00	1.82098509e-05	2.64646941e-05	2.80763665e-14	2.56506315e-04
5.86769879e-01	1.29320011e-01	4.98046889e-03	1.87543216e+00	2.13037946e+05	3.00000000e+02	2.43551881e+03	5.84070439e+06	1.74251156e+00	1.82098493e-05	2.54226138e-05	2.32030677e-14	2.43889052e-04
5.85355252e-01	1.29320011e-01	4.98046889e-03	1.79346402e+00	2.02133927e+05	3.00000000e+02	2.43842617e+03	5.64801549e+06	1.70502379e+00	1.82098468e-05	2.37325567e-05	1.95281264e-14	2.25133971e-04
5.83943754e-01	1.29320011e-01	4.98046889e-03	1.73702362e+00	1.94837083e+05	3.00000000e+02	2.45494243e+03	5.53133964e+06	1.68365419e+00	1.82098437e-05	2.14388774e-05	1.67392925e-14	2.00864213e-04
5.82535386e-01	1.29320011e-01	4.98046889e-03	1.70663025e+00	1.91016630e+05	3.00000000e+02	2.47611637e+03	5.47931557e+06	1.67604125e+00	1.82098404e-05	1.87902662e-05	1.44500878e-14	1.73687002e-04
5.81130147e-01	1.29320011e-01	4.98046889e-03	1.69818733e+00	1.90049466e+05	3.00000000e+02	2.49666683e+03	5.47675861e+06	1.67881418e+00	1.82098371e-05	1.60044476e-05	1.23980227e-14	1.45817377e-04
5.79728007e-01	1.29320011e-01	4.98046889e-03	1.70579357e+00	1.91102086e+05	3.00000000e+02	2.51223028e+03	5.50263627e+06	1.68780615e+00	1.82098342e-05	1.32513229e-05	1.04357822e-14	1.18904778e-04
5.78328997e-01	1.29320011e-01	4.98046889e-03	1.72363747e+00	1.93414474e+05	3.00000000e+02	2.52068088e+03	5.54231780e+06	1.69946241e+00	1.82098316e-05	1.06430185e-05	8.54000587e-15	9.39877628e-05
5.76933116e-01	1.29320011e-01	4.98046889e-03	1.74522875e+00	1.96154728e+05	3.00000000e+02	2.52184290e+03	5.58199793e+06	1.71046783e+00	1.82098295e-05	8.27671833e-06	6.76428892e-15	7.19023591e-05
5.75540334e-01	1.29320011e-01	4.98046889e-03	1.76487894e+00	1.98630407e+05	3.00000000e+02	2.51918460e+03	5.61501981e+06	1.71916363e+00	1.82098278e-05	6.23657314e-06	5.22734639e-15	5.32982966e-05
5.74150622e-01	1.29320011e-01	4.98046889e-03	1.77888357e+00	2.00443799e+05	3.00000000e+02	2.51928471e+03	5.64410323e+06	1.72600550e+00	1.82098265e-05	4.58134247e-06	4.03081109e-15	3.85370348e-05
5.72763980e-01	1.29320011e-01	4.98046889e-03	1.78686371e+00	2.01645149e+05	3.00000000e+02	2.53018145e+03	5.68090374e+06	1.73360982e+00	1.82098256e-05	3.32580169e-06	3.20412648e-15	2.75626229e-05
5.71380436e-01	1.29320011e-01	4.98046889e-03	1.79314132e+00	2.02865129e+05	3.00000000e+02	2.55745659e+03	5.74288580e+06	1.74598786e+00	1.82098250e-05	2.43148968e-06	2.70234923e-15	1.98753868e-05
5.69999934e-01	1.29320011e-01	4.98046889e-03	1.80540962e+00	2.05092553e+05	3.00000000e+02	2.59980083e+03	5.84385118e+06	1.76639469e+00	1.82098245e-05	1.82053042e-06	2.43233074e-15	1.46922155e-05
5.88187664e-01	1.29320011e-01	5.56640653e-03	1.99430572e+00	2.29725341e+05	3.00000000e+02	2.48657532e+03	6.18888378e+06	1.81562583e+00	1.82098312e-05	1.01524075e-05	1.03849258e-14	9.38915738e-05
5.86769879e-01	1.29320011e-01	5.56640653e-03	1.90938133e+00	2.17620750e+05	3.00000000e+02	2.44555416e+03	5.92471550e+06	1.76183269e+00	1.82098308e-05	9.73869412e-06	8.47405549e-15	8.92169076e-05
5.85355252e-01	1.29320011e-01	5.56640653e-03	1.82745429e+00	2.06526453e+05	3.00000000e+02	2.43889985e+03	5.71608239e+06	1.72127374e+00	1.82098303e-05	9.14988616e-06	7.03759609e-15	8.30095374e-05
5.83943754e-01	1.29320011e-01	5.56640653e-03	1.76766952e+00	1.98690723e+05	3.00000000e+02	2.45004131e+03	5.58368476e+06	1.69674648e+00	1.82098295e-05	8.30344659e-06	5.95735926e-15	7.45371674e-05
5.82535386e-01	1.29320011e-01	5.56640653e-03	1.73367165e+00	1.94354427e+05	3.00000000e+02	2.46751282e+03	5.51937039e+06	1.68633118e+00	1.82098286e-05	7.25005491e-06	5.04882003e-15	6.43289148e-05
5.81130147e-01	1.29320011e-01	5.56640653e-03	1.72156314e+00	1.92875302e+05	3.00000000e+02	2.48351084e+03	5.50415182e+06	1.68587072e+00	1.82098277e-05	6.08306268e-06	4.19793619e-15	5.32985319e-05
5.79728007e-01	1.29320011e-01	5.56640653e-03	1.72463131e+00	1.93290045e+05	3.00000000e+02	2.49294449e+03	5.51319239e+06	1.69057413e+00	1.82098267e-05	4.90741388e-06	3.37053988e-15	4.24240806e-05
5.78328997e-01	1.29320011e-01	5.56640653e-03	1.73642084e+00	1.94752520e+05	3.00000000e+02	2.49418863e+03	5.53092545e+06	1.69676597e+00	1.82098259e-05	3.80772299e-06	2.59573801e-15	3.24589820e-05
5.76933116e-01	1.29320011e-01	5.56640653e-03	1.75000991e+00	1.96389413e+05	3.00000000e+02	2.48834745e+03	5.54499205e+06	1.70139669e+00	1.82098252e-05	2.84935898e-06	1.92701633e-15	2.39461487e-05
5.75540334e-01	1.29320011e-01	5.56640653e-03	1.75957005e+00	1.97513400e+05	3.00000000e+02	2.48069171e+03	5.55136698e+06	1.70341125e+00	1.82098247e-05	2.07105493e-06	1.41069969e-15	1.71636193e-05
5.74150622e-01	1.29320011e-01	5.56640653e-03	1.76218597e+00	1.97845660e+05	3.00000000e+02	2.47948851e+03	5.55617516e+06	1.70426357e+00	1.82098243e-05	1.48159212e-06	1.05711177e-15	1.21160078e-05
5.72763979e-01	1.29320011e-01	5.56640653e-03	1.75966564e+00	1.97710819e+05	3.00000000e+02	2.49288077e+03	5.57447034e+06	1.70763748e+00	1.82098240e-05	1.06222705e-06	8.39758853e-16	8.57897907e-06
5.71380436e-01	1.29320011e-01	5.56640653e-03	1.75874647e+00	1.98011608e+05	3.00000000e+02	2.52435015e+03	5.62432775e+06	1.71793319e+00	1.82098239e-05	7.76454046e-07	7.15940220e-16	6.19861279e-06
5.69999934e-01	1.29320011e-01	5.56640653e-03	1.76804734e+00	1.99824698e+05	3.00000000e+02	2.57013876e+03	5.71832638e+06	1.73802126e+00	1.82098237e-05	5.84027485e-07	6.46784338e-16	4.61194831e-06
5.88187664e-01	1.29320011e-01	6.15234417e-03	2.01679630e+00	2.32691109e+05	3.00000000e+02	2.49163718e+03	6.22980582e+06	1.82769290e+00	1.82098258e-05	3.58864325e-06	3.50039789e-15	3.20932459e-05
5.86769879e-01	1.29320011e-01	6.15234417e-03	1.94371102e+00	2.22002468e+05	3.00000000e+02	2.44208819e+03	5.97764694e+06	1.77634096e+00	1.82098256e-05	3.39579305e-06	2.81744417e-15	3.00809571e-05
5.85355252e-01	1.29320011e-01	6.15234417e-03	1.86680981e+00	2.11358413e+05	3.00000000e+02	2.42405319e+03	5.76128812e+06	1.73440662e+00	1.82098255e-05	3.18106602e-06	2.28307895e-15	2.79152429e-05