VARIABLES ="X" "Y" "Z" "rho" "press" "temp" "tau_wall" "qdot" "yplus" "muLam" "ZMean" "ZVar" "CMean" 
Zone T ="wall" I = 7342 , F = point
4.84159381e-01	1.19520001e-01	8.49609403e-03	1.69856863e+00	2.01290773e+05	3.00000000e+02	1.96710533e+03	5.17796850e+06	1.97802152e+00	1.81766871e-05	8.31381375e-04	2.99146134e-13	8.22633184e-03
4.84159381e-01	1.19520001e-01	7.91015662e-03	1.66845500e+00	1.98801380e+05	3.00000000e+02	1.85464087e+03	5.25031772e+06	1.91131363e+00	1.81027932e-05	2.34151981e-03	1.38817553e-12	2.11567782e-02
4.84159381e-01	1.19520001e-01	7.32421899e-03	1.62683135e+00	1.96037367e+05	3.00000000e+02	1.67381580e+03	5.37944607e+06	1.80144338e+00	1.80175139e-05	5.12895582e-03	3.60107302e-12	4.41058678e-02
4.84159381e-01	1.19520001e-01	6.73828157e-03	1.57011781e+00	1.92936784e+05	3.00000000e+02	1.52803629e+03	5.60092344e+06	1.69565435e+00	1.79674320e-05	9.05374317e-03	6.15115336e-12	7.53545384e-02
4.84159380e-01	1.19520001e-01	6.15234417e-03	1.50097919e+00	1.89733807e+05	3.00000000e+02	1.48373249e+03	5.99519780e+06	1.63592357e+00	1.79428949e-05	1.33324203e-02	7.72059606e-12	1.07670265e-01
4.84159380e-01	1.19520001e-01	5.56640653e-03	1.42670457e+00	1.86521382e+05	3.00000000e+02	1.54478377e+03	6.55457271e+06	1.62806535e+00	1.79357452e-05	1.73277492e-02	9.75420001e-12	1.35753765e-01
4.84159380e-01	1.19520001e-01	4.98046889e-03	1.34691450e+00	1.83439089e+05	3.00000000e+02	1.69250862e+03	7.35310689e+06	1.65616371e+00	1.79317461e-05	2.11715677e-02	1.53786055e-11	1.60249451e-01
4.84159381e-01	1.19520001e-01	9.08203143e-03	1.71442127e+00	2.03158015e+05	3.00000000e+02	2.02640119e+03	5.19988798e+06	2.01385758e+00	1.82046830e-05	2.65240681e-04	4.65361733e-14	3.30046567e-03
4.82972532e-01	1.19520001e-01	9.08203144e-03	1.72690128e+00	2.04871228e+05	3.00000000e+02	2.00747435e+03	5.22212725e+06	2.01150993e+00	1.82065208e-05	2.48452811e-04	4.00840805e-14	3.09054812e-03
4.81788292e-01	1.19520001e-01	9.08203144e-03	1.72723784e+00	2.05102304e+05	3.00000000e+02	1.99338212e+03	5.24034026e+06	2.00444055e+00	1.82082646e-05	2.31440437e-04	3.35186209e-14	2.86656867e-03
4.80606675e-01	1.19520001e-01	9.08203144e-03	1.71304561e+00	2.03528669e+05	3.00000000e+02	1.98681696e+03	5.25115997e+06	1.99272301e+00	1.82098699e-05	2.14467803e-04	2.74559658e-14	2.63110057e-03
4.79427695e-01	1.19520001e-01	9.08203144e-03	1.68257852e+00	1.99846384e+05	3.00000000e+02	1.98989093e+03	5.24584104e+06	1.97635770e+00	1.82107210e-05	1.97969957e-04	2.24670419e-14	2.38939151e-03
4.78251323e-01	1.19520001e-01	9.08203144e-03	1.63689303e+00	1.94218302e+05	3.00000000e+02	2.00259039e+03	5.22722030e+06	1.95556749e+00	1.82105804e-05	1.82405416e-04	1.88411445e-14	2.15979149e-03
4.82972532e-01	1.19520001e-01	8.49609403e-03	1.70927235e+00	2.02833052e+05	3.00000000e+02	1.95660641e+03	5.20387876e+06	1.97860993e+00	1.81797359e-05	7.99317959e-04	2.73098902e-13	7.95048439e-03
4.81788292e-01	1.19520001e-01	8.49609403e-03	1.70956052e+00	2.03127844e+05	3.00000000e+02	1.95311538e+03	5.22927809e+06	1.97660707e+00	1.81834476e-05	7.51079361e-04	2.40778192e-13	7.53364466e-03
4.80606675e-01	1.19520001e-01	8.49609403e-03	1.69692466e+00	2.01805719e+05	3.00000000e+02	1.95803474e+03	5.25100096e+06	1.97150123e+00	1.81859005e-05	6.89320848e-04	2.06124019e-13	6.99917401e-03
4.79427695e-01	1.19520001e-01	8.49609403e-03	1.67023353e+00	1.98638527e+05	3.00000000e+02	1.96903862e+03	5.25803269e+06	1.96131293e+00	1.81869222e-05	6.19190226e-04	1.69495376e-13	6.33159340e-03
4.78251323e-01	1.19520001e-01	8.49609403e-03	1.62900788e+00	1.93674420e+05	3.00000000e+02	1.99256315e+03	5.25946419e+06	1.94861801e+00	1.81857540e-05	5.47025895e-04	1.38121171e-13	5.60998138e-03
4.82972532e-01	1.19520001e-01	7.91015662e-03	1.67849287e+00	2.00516611e+05	3.00000000e+02	1.85107595e+03	5.31667048e+06	1.91576627e+00	1.80975477e-05	2.27192335e-03	1.30463325e-12	2.05014834e-02
4.81788292e-01	1.19520001e-01	7.91015663e-03	1.67868161e+00	2.01078006e+05	3.00000000e+02	1.85405475e+03	5.36397619e+06	1.91614595e+00	1.81095327e-05	2.14687454e-03	1.18212657e-12	1.95294560e-02
4.80606676e-01	1.19520001e-01	7.91015663e-03	1.67277218e+00	1.99916512e+05	3.00000000e+02	1.88405459e+03	5.31414482e+06	1.92669826e+00	1.81234895e-05	1.97173490e-03	1.08006724e-12	1.80553611e-02
4.79427695e-01	1.19520001e-01	7.91015663e-03	1.65126176e+00	1.97900284e+05	3.00000000e+02	1.89839663e+03	5.37625782e+06	1.92062855e+00	1.81321141e-05	1.76005058e-03	8.91411042e-13	1.61744849e-02
4.78251323e-01	1.19520001e-01	7.91015663e-03	1.62236372e+00	1.93600006e+05	3.00000000e+02	1.94080931e+03	5.29345029e+06	1.92339997e+00	1.81462264e-05	1.53719691e-03	7.48012071e-13	1.42932701e-02
4.82972532e-01	1.19520001e-01	7.32421899e-03	1.63767655e+00	1.97478795e+05	3.00000000e+02	1.67613085e+03	5.39867865e+06	1.80816926e+00	1.80226781e-05	5.00193887e-03	3.49155961e-12	4.29904208e-02
4.81788293e-01	1.19520001e-01	7.32421899e-03	1.64348506e+00	1.97992229e+05	3.00000000e+02	1.69889214e+03	5.37603960e+06	1.82235845e+00	1.80352581e-05	4.76256356e-03	3.41266902e-12	4.10977471e-02
4.80606676e-01	1.19520001e-01	7.32421899e-03	1.63745513e+00	1.97790813e+05	3.00000000e+02	1.72054974e+03	5.44341740e+06	1.82950333e+00	1.80457734e-05	4.41180474e-03	3.08970186e-12	3.81385288e-02
4.79427695e-01	1.19520001e-01	7.32421898e-03	1.63218379e+00	1.96866846e+05	3.00000000e+02	1.76072180e+03	5.43044852e+06	1.84649539e+00	1.80581002e-05	3.97764096e-03	2.78946383e-12	3.45194010e-02
4.78251323e-01	1.19520001e-01	7.32421899e-03	1.61434947e+00	1.95253198e+05	3.00000000e+02	1.79832924e+03	5.50151023e+06	1.85444030e+00	1.80721952e-05	3.51470384e-03	2.41122010e-12	3.06789205e-02
4.82972532e-01	1.19520001e-01	6.73828158e-03	1.57935189e+00	1.94289600e+05	3.00000000e+02	1.52762512e+03	5.63481157e+06	1.70031726e+00	1.79683529e-05	8.89077738e-03	6.29637295e-12	7.40566151e-02
4.81788293e-01	1.19520001e-01	6.73828158e-03	1.58599641e+00	1.95166053e+05	3.00000000e+02	1.53828797e+03	5.65730944e+06	1.70933882e+00	1.79734791e-05	8.55100522e-03	6.32954520e-12	7.13181842e-02
4.80606676e-01	1.19520001e-01	6.73828158e-03	1.59325350e+00	1.95828823e+05	3.00000000e+02	1.55652876e+03	5.65581731e+06	1.72268227e+00	1.79806843e-05	8.03453692e-03	6.14459663e-12	6.71794087e-02
4.79427695e-01	1.19520001e-01	6.73828157e-03	1.59863330e+00	1.96213756e+05	3.00000000e+02	1.58431618e+03	5.65749066e+06	1.74011853e+00	1.79889953e-05	7.38377228e-03	5.75391065e-12	6.19454739e-02
4.78251323e-01	1.19520001e-01	6.73828158e-03	1.60036082e+00	1.96296216e+05	3.00000000e+02	1.62636931e+03	5.67052401e+06	1.76273309e+00	1.80020667e-05	6.66261413e-03	5.38741756e-12	5.61319935e-02
4.77077573e-01	1.19520001e-01	6.73828158e-03	1.59807178e+00	1.95674713e+05	3.00000000e+02	1.66184520e+03	5.66867584e+06	1.77954938e+00	1.80124905e-05	5.95305885e-03	4.86660532e-12	5.03575615e-02
4.82972532e-01	1.19520001e-01	6.15234417e-03	1.51082542e+00	1.91249660e+05	3.00000000e+02	1.48141778e+03	6.03841708e+06	1.63980034e+00	1.79450772e-05	1.31891157e-02	8.32279762e-12	1.06557130e-01
4.81788292e-01	1.19520001e-01	6.15234417e-03	1.52284196e+00	1.92676765e+05	3.00000000e+02	1.48094847e+03	6.04752017e+06	1.64595025e+00	1.79461408e-05	1.28467193e-02	8.79180967e-12	1.04002632e-01
4.80606675e-01	1.19520001e-01	6.15234417e-03	1.53818651e+00	1.94280602e+05	3.00000000e+02	1.48194312e+03	6.03874051e+06	1.65449119e+00	1.79492453e-05	1.23044638e-02	9.06840452e-12	9.99333602e-02
4.79427695e-01	1.19520001e-01	6.15234417e-03	1.55540447e+00	1.95912735e+05	3.00000000e+02	1.48232698e+03	6.01550535e+06	1.66361833e+00	1.79527245e-05	1.15922373e-02	9.07678807e-12	9.45635954e-02
4.78251323e-01	1.19520001e-01	6.15234417e-03	1.57274821e+00	1.97242071e+05	3.00000000e+02	1.47938014e+03	5.95951374e+06	1.67065143e+00	1.79586642e-05	1.07640670e-02	8.66354854e-12	8.82040478e-02
4.77077573e-01	1.19520001e-01	6.15234417e-03	1.58502698e+00	1.97751738e+05	3.00000000e+02	1.47706097e+03	5.88499276e+06	1.67504689e+00	1.79672230e-05	9.89143192e-03	7.95954164e-12	8.13913631e-02
4.82972533e-01	1.19520001e-01	5.56640653e-03	1.44011102e+00	1.88380382e+05	3.00000000e+02	1.53412048e+03	6.57611093e+06	1.63001313e+00	1.79360581e-05	1.72312954e-02	1.03339652e-11	1.35079355e-01
4.81788292e-01	1.19520001e-01	5.56640653e-03	1.45716919e+00	1.90542748e+05	3.00000000e+02	1.52346358e+03	6.58696853e+06	1.63389035e+00	1.79365331e-05	1.69484842e-02	1.08318465e-11	1.33125183e-01
4.80606675e-01	1.19520001e-01	5.56640653e-03	1.47841491e+00	1.93142623e+05	3.00000000e+02	1.50957902e+03	6.59598819e+06	1.63813697e+00	1.79376797e-05	1.64842106e-02	1.13422680e-11	1.29894942e-01
4.79427695e-01	1.19520001e-01	5.56640653e-03	1.50258739e+00	1.95871402e+05	3.00000000e+02	1.48722245e+03	6.58272157e+06	1.63903307e+00	1.79395071e-05	1.58612658e-02	1.17514526e-11	1.25515979e-01
4.78251323e-01	1.19520001e-01	5.56640653e-03	1.52797836e+00	1.98258417e+05	3.00000000e+02	1.45500037e+03	6.51368738e+06	1.63463613e+00	1.79415287e-05	1.51150153e-02	1.16868783e-11	1.20198123e-01
4.77077573e-01	1.19520001e-01	5.56640653e-03	1.54869531e+00	1.99832090e+05	3.00000000e+02	1.42315697e+03	6.42716103e+06	1.62728619e+00	1.79446851e-05	1.42879987e-02	1.13037550e-11	1.14207851e-01
4.82972532e-01	1.19520001e-01	4.98046889e-03	1.36273989e+00	1.85888148e+05	3.00000000e+02	1.68403550e+03	7.40568511e+06	1.66171116e+00	1.79315138e-05	2.10993524e-02	1.62467206e-11	1.59865969e-01
4.81788292e-01	1.19520001e-01	4.98046889e-03	1.38490222e+00	1.88914940e+05	3.00000000e+02	1.66454766e+03	7.42845966e+06	1.66541127e+00	1.79319103e-05	2.08545763e-02	1.67572127e-11	1.58407085e-01
4.80606675e-01	1.19520001e-01	4.98046889e-03	1.41437476e+00	1.92444551e+05	3.00000000e+02	1.62624315e+03	7.38976653e+06	1.66349117e+00	1.79326666e-05	2.04541959e-02	1.66731723e-11	1.55936496e-01
4.79427695e-01	1.19520001e-01	4.98046889e-03	1.44771404e+00	1.96091849e+05	3.00000000e+02	1.57366530e+03	7.30478081e+06	1.65547801e+00	1.79334789e-05	1.99176891e-02	1.61161333e-11	1.52537146e-01
4.78251323e-01	1.19520001e-01	4.98046889e-03	1.47946768e+00	1.99369483e+05	3.00000000e+02	1.51808188e+03	7.21206394e+06	1.64357983e+00	1.79349397e-05	1.92688524e-02	1.53684966e-11	1.48317717e-01
4.77077573e-01	1.19520001e-01	4.98046889e-03	1.50575149e+00	2.01882382e+05	3.00000000e+02	1.46491823e+03	7.12628034e+06	1.62864641e+00	1.79368808e-05	1.85430331e-02	1.46728511e-11	1.43497655e-01
4.82972532e-01	1.19520001e-01	4.39453149e-03	1.29432838e+00	1.83645395e+05	3.00000000e+02	1.79308879e+03	8.14960504e+06	1.67195583e+00	1.79220927e-05	2.55236445e-02	2.78856928e-11	1.84075728e-01
4.81788293e-01	1.19520001e-01	4.39453149e-03	1.32071247e+00	1.87590113e+05	3.00000000e+02	1.77967101e+03	8.21956467e+06	1.68259546e+00	1.79219258e-05	2.52245769e-02	2.84589410e-11	1.82800655e-01
4.80606676e-01	1.19520001e-01	4.39453149e-03	1.35297450e+00	1.92062345e+05	3.00000000e+02	1.75027381e+03	8.25241704e+06	1.68883056e+00	1.79226453e-05	2.47667314e-02	2.82144175e-11	1.80619649e-01
4.79427695e-01	1.19520001e-01	4.39453148e-03	1.38854334e+00	1.96630175e+05	3.00000000e+02	1.70438247e+03	8.23562488e+06	1.68817141e+00	1.79240891e-05	2.41844357e-02	2.71751037e-11	1.77624925e-01
4.78251323e-01	1.19520001e-01	4.39453149e-03	1.42399229e+00	2.00804088e+05	3.00000000e+02	1.64545568e+03	8.16982376e+06	1.67956973e+00	1.79262422e-05	2.35110269e-02	2.54951216e-11	1.73922192e-01
4.77077573e-01	1.19520001e-01	4.39453149e-03	1.45676052e+00	2.04222119e+05	3.00000000e+02	1.57648767e+03	8.05452260e+06	1.66255314e+00	1.79289238e-05	2.27855378e-02	2.33504582e-11	1.69698469e-01
4.82972533e-01	1.19520001e-01	3.80859396e-03	1.21948348e+00	1.81791039e+05	3.00000000e+02	1.86486630e+03	8.99676325e+06	1.65812988e+00	1.78889005e-05	3.15640502e-02	5.71690073e-11	2.08454531e-01
4.81788293e-01	1.19520001e-01	3.80859396e-03	1.24984272e+00	1.86563806e+05	3.00000000e+02	1.85662861e+03	9.11539419e+06	1.67478121e+00	1.78905012e-05	3.11348357e-02	5.83813632e-11	2.07361311e-01
4.80606676e-01	1.19520001e-01	3.80859396e-03	1.28588562e+00	1.91839712e+05	3.00000000e+02	1.83245827e+03	9.19473345e+06	1.68736729e+00	1.78936516e-05	3.05132236e-02	5.74901207e-11	2.05532819e-01
4.79427695e-01	1.19520001e-01	3.80859396e-03	1.32537230e+00	1.97229371e+05	3.00000000e+02	1.79226648e+03	9.21867487e+06	1.69380544e+00	1.78976948e-05	2.97420399e-02	5.45947849e-11	2.02986552e-01
4.78251323e-01	1.19520001e-01	3.80859396e-03	1.36557962e+00	2.02285106e+05	3.00000000e+02	1.73778515e+03	9.17878407e+06	1.69251448e+00	1.79025356e-05	2.88636979e-02	5.00123673e-11	1.99726226e-01
4.77077573e-01	1.19520001e-01	3.80859396e-03	1.40361483e+00	2.06643344e+05	3.00000000e+02	1.67150119e+03	9.08401446e+06	1.68236102e+00	1.79080585e-05	2.79333987e-02	4.44621985e-11	1.95841846e-01
4.82972532e-01	1.19520001e-01	3.22265643e-03	1.13262511e+00	1.80350691e+05	3.00000000e+02	1.86355168e+03	9.78995536e+06	1.60623800e+00	1.77907518e-05	4.05983132e-02	1.30510319e-10	2.29061086e-01
4.81788293e-01	1.19520001e-01	3.22265643e-03	1.16626342e+00	1.85798447e+05	3.00000000e+02	1.85607060e+03	9.95234138e+06	1.62608849e+00	1.77967944e-05	3.99800226e-02	1.34103377e-10	2.28386886e-01
4.80606675e-01	1.19520001e-01	3.22265643e-03	1.20569088e+00	1.91730747e+05	3.00000000e+02	1.83489479e+03	1.00784420e+07	1.64304738e+00	1.78058975e-05	3.91004603e-02	1.32584357e-10	2.27273977e-01
4.79427695e-01	1.19520001e-01	3.22265643e-03	1.24894933e+00	1.97856279e+05	3.00000000e+02	1.80101200e+03	1.01623427e+07	1.65568780e+00	1.78173310e-05	3.80054503e-02	1.26296106e-10	2.25670261e-01
4.78251323e-01	1.19520001e-01	3.22265643e-03	1.29379561e+00	2.03746577e+05	3.00000000e+02	1.75387427e+03	1.01836495e+07	1.66175956e+00	1.78301200e-05	3.67474653e-02	1.15544512e-10	2.23526716e-01
4.77077573e-01	1.19520001e-01	3.22265643e-03	1.33744014e+00	2.08963375e+05	3.00000000e+02	1.69400208e+03	1.01330326e+07	1.65919775e+00	1.78437603e-05	3.54095666e-02	1.01404192e-10	2.20824796e-01
4.82972533e-01	1.19520001e-01	2.63671891e-03	1.02947738e+00	1.79314520e+05	3.00000000e+02	1.77647478e+03	1.01292031e+07	1.51292131e+00	1.75817447e-05	5.45152364e-02	2.91587067e-10	2.39700122e-01
4.81788293e-01	1.19520001e-01	2.63671891e-03	1.06398263e+00	1.85283721e+05	3.00000000e+02	1.77068079e+03	1.03589583e+07	1.53451904e+00	1.75936323e-05	5.36857051e-02	3.09667054e-10	2.39547673e-01
4.80606676e-01	1.19520001e-01	2.63671891e-03	1.10428690e+00	1.91741000e+05	3.00000000e+02	1.75213968e+03	1.05642188e+07	1.55361778e+00	1.76104934e-05	5.24985297e-02	3.17309735e-10	2.39278352e-01
4.79427695e-01	1.19520001e-01	2.63671891e-03	1.14961854e+00	1.98503221e+05	3.00000000e+02	1.72134459e+03	1.07360351e+07	1.56928276e+00	1.76319347e-05	5.09896545e-02	3.13456200e-10	2.38851515e-01
4.78251323e-01	1.19520001e-01	2.63671891e-03	1.19764677e+00	2.05119344e+05	3.00000000e+02	1.67716708e+03	1.08638009e+07	1.57877801e+00	1.76572007e-05	4.92028297e-02	2.96318806e-10	2.38210260e-01
4.77077573e-01	1.19520001e-01	2.63671891e-03	1.24535057e+00	2.11047631e+05	3.00000000e+02	1.62057779e+03	1.09177584e+07	1.58019300e+00	1.76832059e-05	4.72445004e-02	2.65714654e-10	2.37329084e-01
4.82972532e-01	1.19520001e-01	2.05078133e-03	9.09102352e-01	1.78445211e+05	3.00000000e+02	1.60831971e+03	9.73473998e+06	1.38232277e+00	1.72057459e-05	7.57279191e-02	5.32630859e-10	2.40409774e-01
4.81788293e-01	1.19520001e-01	2.05078133e-03	9.41837506e-01	1.84818628e+05	3.00000000e+02	1.60368873e+03	9.99951987e+06	1.40341961e+00	1.72246685e-05	7.47856036e-02	5.94697010e-10	2.40491305e-01
4.80606675e-01	1.19520001e-01	2.05078133e-03	9.80308603e-01	1.91684779e+05	3.00000000e+02	1.58563889e+03	1.02368083e+07	1.42145494e+00	1.72520552e-05	7.33869364e-02	6.49696582e-10	2.40625578e-01
4.79427695e-01	1.19520001e-01	2.05078133e-03	1.02420947e+00	1.98867542e+05	3.00000000e+02	1.55358901e+03	1.04442556e+07	1.43568140e+00	1.72820307e-05	7.15537566e-02	6.86488082e-10	2.40917853e-01
4.78251323e-01	1.19520001e-01	2.05078133e-03	1.07149271e+00	2.06029105e+05	3.00000000e+02	1.50726205e+03	1.06687626e+07	1.44348453e+00	1.73167842e-05	6.92831649e-02	7.00244660e-10	2.41284250e-01
4.77077574e-01	1.19520001e-01	2.05078133e-03	1.11945883e+00	2.12539446e+05	3.00000000e+02	1.44618971e+03	1.08496946e+07	1.44166899e+00	1.73596724e-05	6.66445958e-02	6.79368129e-10	2.41587047e-01
4.82972533e-01	1.19520001e-01	1.46484381e-03	7.82541345e-01	1.77775801e+05	3.00000000e+02	1.39598240e+03	8.53929721e+06	1.23491275e+00	1.66474504e-05	1.05486633e-01	6.19085128e-10	2.35147671e-01
4.81788293e-01	1.19520001e-01	1.46484381e-03	8.09860123e-01	1.84239514e+05	3.00000000e+02	1.38795276e+03	8.81705206e+06	1.25199290e+00	1.66563896e-05	1.04890347e-01	7.18229135e-10	2.35214296e-01
4.80606675e-01	1.19520001e-01	1.46484381e-03	8.41343346e-01	1.91221141e+05	3.00000000e+02	1.36441296e+03	9.14534019e+06	1.26404846e+00	1.66719427e-05	1.03805195e-01	8.22152286e-10	2.35347028e-01
4.79427695e-01	1.19520001e-01	1.46484381e-03	8.78104896e-01	1.98752580e+05	3.00000000e+02	1.32943813e+03	9.44926696e+06	1.27227857e+00	1.67038060e-05	1.02185154e-01	9.34629207e-10	2.35604230e-01
4.78251323e-01	1.19520001e-01	1.46484381e-03	9.16885126e-01	2.06467606e+05	3.00000000e+02	1.27620788e+03	9.76447625e+06	1.27022895e+00	1.67504529e-05	1.00034383e-01	1.04659204e-09	2.36301815e-01
4.77077573e-01	1.19520001e-01	1.46484381e-03	9.59384514e-01	2.13204021e+05	3.00000000e+02	1.21477887e+03	9.78229550e+06	1.26377284e+00	1.68022071e-05	9.73346876e-02	1.15237467e-09	2.37112239e-01
4.82972532e-01	1.19520001e-01	8.78906286e-04	6.67798157e-01	1.77339083e+05	3.00000000e+02	1.21080900e+03	7.44256335e+06	1.09714791e+00	1.61207645e-05	1.37851402e-01	3.70314335e-10	2.25105921e-01
4.81788293e-01	1.19520001e-01	8.78906287e-04	6.88351506e-01	1.83995875e+05	3.00000000e+02	1.21095981e+03	7.68197746e+06	1.11405841e+00	1.61195318e-05	1.38163854e-01	4.51738504e-10	2.24710721e-01
4.80606675e-01	1.19520001e-01	8.78906286e-04	7.12249029e-01	1.91332302e+05	3.00000000e+02	1.19911576e+03	7.89204621e+06	1.12729090e+00	1.61250426e-05	1.38209202e-01	5.61647099e-10	2.24356647e-01
4.79427695e-01	1.19520001e-01	8.78906286e-04	7.38493454e-01	1.98883018e+05	3.00000000e+02	1.17458433e+03	8.04174313e+06	1.13522130e+00	1.61370922e-05	1.37943393e-01	6.99475291e-10	2.24065019e-01
4.78251323e-01	1.19520001e-01	8.78906286e-04	7.67239399e-01	2.06638060e+05	3.00000000e+02	1.13287951e+03	8.14565805e+06	1.13514506e+00	1.61546046e-05	1.37350280e-01	8.58115059e-10	2.23863307e-01
4.77077574e-01	1.19520001e-01	8.78906286e-04	7.96232228e-01	2.13770944e+05	3.00000000e+02	1.07368847e+03	8.19136448e+06	1.12415372e+00	1.61779580e-05	1.36340106e-01	1.02188254e-09	2.23818862e-01
4.82972533e-01	1.19520001e-01	2.92968761e-04	6.10951852e-01	1.77165208e+05	3.00000000e+02	1.16149028e+03	5.77828840e+06	1.05400938e+00	1.57201683e-05	1.61562384e-01	1.43382646e-10	2.08053359e-01
4.81788293e-01	1.19520001e-01	2.92968761e-04	6.28321129e-01	1.83790090e+05	3.00000000e+02	1.16004335e+03	5.88329105e+06	1.07008241e+00	1.56928239e-05	1.62967322e-01	1.73832354e-10	2.03812414e-01
4.80606676e-01	1.19520001e-01	2.92968761e-04	6.47660376e-01	1.91140115e+05	3.00000000e+02	1.14596123e+03	5.98246733e+06	1.08186354e+00	1.56630569e-05	1.64450886e-01	2.11846865e-10	1.98559738e-01
4.79427695e-01	1.19520001e-01	2.92968761e-04	6.67892917e-01	1.98885221e+05	3.00000000e+02	1.12055287e+03	6.06339426e+06	1.08865068e+00	1.56304483e-05	1.66019243e-01	2.57973484e-10	1.92080611e-01
4.78251323e-01	1.19520001e-01	2.92968761e-04	6.88334185e-01	2.06767172e+05	3.00000000e+02	1.08084361e+03	6.10528087e+06	1.08789698e+00	1.55949401e-05	1.67673239e-01	3.10667338e-10	1.84175850e-01
4.77077573e-01	1.19520001e-01	2.92968761e-04	7.06926379e-01	2.14056352e+05	3.00000000e+02	1.02687713e+03	6.07613726e+06	1.07723992e+00	1.55569437e-05	1.69416222e-01	3.63122664e-10	1.74681814e-01
4.77077574e-01	1.19520001e-01	9.08203144e-03	1.57853964e+00	1.86850731e+05	3.00000000e+02	2.02447889e+03	5.18231540e+06	1.93087296e+00	1.82104658e-05	1.68240304e-04	1.66347604e-14	1.95993989e-03
4.75906431e-01	1.19520001e-01	9.08203144e-03	1.50742648e+00	1.77814933e+05	3.00000000e+02	2.06865692e+03	5.11598786e+06	1.90736536e+00	1.82103712e-05	1.55294947e-04	1.56324629e-14	1.78342466e-03
4.74737868e-01	1.19520001e-01	9.08203144e-03	1.45031737e+00	1.70528835e+05	3.00000000e+02	2.11524033e+03	5.05455449e+06	1.89184118e+00	1.82102997e-05	1.44675249e-04	1.53463641e-14	1.64011320e-03
4.73571912e-01	1.19520001e-01	9.08203143e-03	1.41329958e+00	1.65720232e+05	3.00000000e+02	2.14778612e+03	5.00221911e+06	1.88185974e+00	1.82102440e-05	1.35743419e-04	1.52429881e-14	1.52159600e-03
4.72408548e-01	1.19520001e-01	9.08203144e-03	1.39458084e+00	1.63271178e+05	3.00000000e+02	2.17437645e+03	4.97291438e+06	1.88089667e+00	1.82101977e-05	1.27767389e-04	1.53489861e-14	1.41845212e-03
4.71247747e-01	1.19520001e-01	9.08203144e-03	1.39536179e+00	1.63421631e+05	3.00000000e+02	2.20051759e+03	4.98051477e+06	1.89270322e+00	1.82101574e-05	1.20295728e-04	1.58374860e-14	1.32449347e-03
4.70089525e-01	1.19520001e-01	9.08203144e-03	1.41635271e+00	1.66436430e+05	3.00000000e+02	2.23363477e+03	5.04578959e+06	1.92118573e+00	1.82101206e-05	1.12990290e-04	1.72350442e-14	1.23483475e-03
4.77077574e-01	1.19520001e-01	8.49609403e-03	1.58297755e+00	1.88251146e+05	3.00000000e+02	2.01470120e+03	5.27256776e+06	1.93186478e+00	1.81826157e-05	4.81533183e-04	1.13131407e-13	4.95570726e-03
4.75906432e-01	1.19520001e-01	8.49609403e-03	1.52347675e+00	1.80663111e+05	3.00000000e+02	2.05225625e+03	5.21595347e+06	1.91219751e+00	1.81882681e-05	4.24434624e-04	9.75178724e-14	4.44573734e-03
4.74737868e-01	1.19520001e-01	8.49609403e-03	1.46642161e+00	1.73226480e+05	3.00000000e+02	2.09894622e+03	5.13833089e+06	1.89666376e+00	1.81940809e-05	3.84715258e-04	8.92471317e-14	4.07472644e-03
4.73571911e-01	1.19520001e-01	8.49609403e-03	1.42632988e+00	1.67952855e+05	3.00000000e+02	2.13591427e+03	5.07511480e+06	1.88660537e+00	1.81974786e-05	3.60188016e-04	8.65458112e-14	3.83193298e-03
4.72408548e-01	1.19520001e-01	8.49609403e-03	1.40373052e+00	1.64993309e+05	3.00000000e+02	2.16854453e+03	5.03948257e+06	1.88562044e+00	1.81996130e-05	3.44462517e-04	8.80798578e-14	3.66558633e-03
4.71247748e-01	1.19520001e-01	8.49609403e-03	1.40339254e+00	1.65015917e+05	3.00000000e+02	2.19824925e+03	5.04647673e+06	1.89812368e+00	1.82009445e-05	3.34877278e-04	9.35517969e-14	3.55444546e-03
4.70089525e-01	1.19520001e-01	8.49609403e-03	1.42530684e+00	1.68106502e+05	3.00000000e+02	2.22786661e+03	5.10573389e+06	1.92563572e+00	1.82018289e-05	3.28848814e-04	1.05061188e-13	3.47667824e-03
4.77077573e-01	1.19520001e-01	7.91015662e-03	1.59303906e+00	1.91079987e+05	3.00000000e+02	1.95561580e+03	5.43011551e+06	1.91453910e+00	1.81334786e-05	1.32740464e-03	5.95207708e-13	1.23965637e-02
4.75906431e-01	1.19520001e-01	7.91015662e-03	1.54874791e+00	1.84464383e+05	3.00000000e+02	1.98755548e+03	5.26834534e+06	1.90007558e+00	1.81622440e-05	1.15610349e-03	5.08586848e-13	1.10003871e-02
4.74737867e-01	1.19520001e-01	7.91015662e-03	1.49245778e+00	1.76997034e+05	3.00000000e+02	2.03413095e+03	5.18846823e+06	1.88640029e+00	1.81675771e-05	1.02893227e-03	4.47125330e-13	9.81422864e-03
4.73571911e-01	1.19520001e-01	7.91015662e-03	1.44747311e+00	1.71254515e+05	3.00000000e+02	2.07330197e+03	5.14563602e+06	1.87543195e+00	1.81687734e-05	9.55130466e-04	4.23713488e-13	9.10107252e-03
4.72408548e-01	1.19520001e-01	7.91015663e-03	1.41842450e+00	1.67541504e+05	3.00000000e+02	2.11183698e+03	5.11395338e+06	1.87354304e+00	1.81702129e-05	9.16054032e-04	4.33932837e-13	8.71911078e-03
4.71247748e-01	1.19520001e-01	7.91015663e-03	1.41522975e+00	1.67194937e+05	3.00000000e+02	2.14330909e+03	5.11737342e+06	1.88524989e+00	1.81709376e-05	9.05796065e-04	4.72571057e-13	8.62364369e-03
4.70089525e-01	1.19520001e-01	7.91015662e-03	1.43653504e+00	1.70222619e+05	3.00000000e+02	2.16740825e+03	5.17666527e+06	1.91011716e+00	1.81701642e-05	9.15697103e-04	5.51503799e-13	8.72075973e-03
4.77077573e-01	1.19520001e-01	7.32421899e-03	1.60124299e+00	1.93108468e+05	3.00000000e+02	1.82685015e+03	5.46010400e+06	1.86014100e+00	1.80852536e-05	3.06898475e-03	2.04140212e-12	2.69350982e-02
4.75906431e-01	1.19520001e-01	7.32421899e-03	1.57070663e+00	1.89048047e+05	3.00000000e+02	1.84999815e+03	5.43760600e+06	1.85324812e+00	1.80921426e-05	2.69963578e-03	1.74122657e-12	2.38297984e-02
4.74737867e-01	1.19520001e-01	7.32421898e-03	1.52663657e+00	1.81662891e+05	3.00000000e+02	1.89088982e+03	5.20898642e+06	1.84539121e+00	1.81093507e-05	2.40627756e-03	1.52469537e-12	2.13966286e-02
4.73571911e-01	1.19520001e-01	7.32421898e-03	1.47880038e+00	1.76447358e+05	3.00000000e+02	1.92850200e+03	5.28588058e+06	1.83463101e+00	1.81053313e-05	2.21683695e-03	1.39715602e-12	1.97147222e-02
4.72408548e-01	1.19520001e-01	7.32421898e-03	1.44655260e+00	1.71832477e+05	3.00000000e+02	1.98833234e+03	5.18464419e+06	1.84109972e+00	1.81186016e-05	2.13108538e-03	1.50644136e-12	1.90714550e-02
4.71247748e-01	1.19520001e-01	7.32421898e-03	1.43559985e+00	1.70551809e+05	3.00000000e+02	2.02677091e+03	5.18599186e+06	1.85168576e+00	1.81193299e-05	2.13166098e-03	1.69568982e-12	1.90367555e-02
4.70089525e-01	1.19520001e-01	7.32421899e-03	1.45264349e+00	1.72972644e+05	3.00000000e+02	2.03709596e+03	5.24120069e+06	1.86848497e+00	1.81086485e-05	2.20033614e-03	2.00464421e-12	1.95777801e-02
4.75906431e-01	1.19520001e-01	6.73828158e-03	1.58449906e+00	1.93165882e+05	3.00000000e+02	1.69015566e+03	5.59520990e+06	1.78541651e+00	1.80285244e-05	5.32082797e-03	4.31232244e-12	4.52572997e-02
4.74737867e-01	1.19520001e-01	6.73828157e-03	1.54993789e+00	1.88052072e+05	3.00000000e+02	1.73237495e+03	5.51148578e+06	1.78644262e+00	1.80417811e-05	4.80561066e-03	3.90410374e-12	4.10540658e-02
4.73571911e-01	1.19520001e-01	6.73828157e-03	1.50981366e+00	1.82798943e+05	3.00000000e+02	1.76412909e+03	5.48196164e+06	1.77835399e+00	1.80509069e-05	4.44354457e-03	3.61612216e-12	3.80488448e-02
4.72408548e-01	1.19520001e-01	6.73828158e-03	1.46989571e+00	1.77085879e+05	3.00000000e+02	1.81166236e+03	5.38671300e+06	1.77799991e+00	1.80526326e-05	4.28784208e-03	3.75723723e-12	3.67806924e-02
4.71247748e-01	1.19520001e-01	6.73828158e-03	1.44802921e+00	1.74633785e+05	3.00000000e+02	1.85405571e+03	5.40430329e+06	1.78509696e+00	1.80542157e-05	4.31567731e-03	4.26878390e-12	3.69314131e-02
4.70089525e-01	1.19520001e-01	6.73828158e-03	1.45674550e+00	1.75844806e+05	3.00000000e+02	1.86821535e+03	5.41870689e+06	1.79795339e+00	1.80475089e-05	4.51341782e-03	5.15366557e-12	3.84653871e-02
4.68933896e-01	1.19520001e-01	6.73828158e-03	1.48404164e+00	1.80434507e+05	3.00000000e+02	1.85383650e+03	5.54608686e+06	1.80800793e+00	1.80446645e-05	4.88503642e-03	6.73573824e-12	4.14654654e-02
4.75906431e-01	1.19520001e-01	6.15234417e-03	1.58403858e+00	1.96587784e+05	3.00000000e+02	1.48619819e+03	5.80585212e+06	1.67870127e+00	1.79778689e-05	9.04839242e-03	7.26813291e-12	7.47122864e-02
4.74737868e-01	1.19520001e-01	6.15234417e-03	1.56416758e+00	1.93415075e+05	3.00000000e+02	1.51699626e+03	5.75847462e+06	1.68459367e+00	1.79857733e-05	8.31905510e-03	6.76337509e-12	6.89028465e-02
4.73571911e-01	1.19520001e-01	6.15234417e-03	1.53316137e+00	1.89041821e+05	3.00000000e+02	1.55810780e+03	5.71916337e+06	1.68937103e+00	1.79952559e-05	7.78591905e-03	6.54814439e-12	6.45935924e-02
4.72408548e-01	1.19520001e-01	6.15234417e-03	1.49083393e+00	1.83326140e+05	3.00000000e+02	1.60683331e+03	5.66890756e+06	1.69149584e+00	1.79978032e-05	7.54354693e-03	6.77817580e-12	6.26540302e-02
4.71247748e-01	1.19520001e-01	6.15234417e-03	1.45991268e+00	1.79421518e+05	3.00000000e+02	1.64740821e+03	5.65014663e+06	1.69476937e+00	1.79988116e-05	7.60405196e-03	7.47151287e-12	6.30529785e-02
4.70089525e-01	1.19520001e-01	6.15234417e-03	1.45298115e+00	1.78930616e+05	3.00000000e+02	1.65702733e+03	5.67353397e+06	1.69605120e+00	1.79947681e-05	7.98346420e-03	8.67654479e-12	6.59734877e-02
4.68933896e-01	1.19520001e-01	6.15234417e-03	1.47038244e+00	1.82074707e+05	3.00000000e+02	1.63363985e+03	5.75779494e+06	1.69452229e+00	1.79902174e-05	8.67248302e-03	1.05948312e-11	7.12594156e-02
4.75906431e-01	1.19520001e-01	5.56640653e-03	1.55988392e+00	1.99922202e+05	3.00000000e+02	1.39598858e+03	6.31109781e+06	1.61716603e+00	1.79482805e-05	1.34394068e-02	1.05995124e-11	1.07951665e-01
4.74737868e-01	1.19520001e-01	5.56640653e-03	1.55893010e+00	1.98217601e+05	3.00000000e+02	1.37606212e+03	6.16295491e+06	1.60459022e+00	1.79538911e-05	1.26533339e-02	9.53457041e-12	1.02024121e-01
4.73571911e-01	1.19520001e-01	5.56640653e-03	1.54322723e+00	1.94771732e+05	3.00000000e+02	1.36828174e+03	6.01748284e+06	1.59157226e+00	1.79583623e-05	1.20420847e-02	8.64601920e-12	9.73232880e-02
4.72408548e-01	1.19520001e-01	5.56640653e-03	1.50795917e+00	1.89503424e+05	3.00000000e+02	1.39028341e+03	5.92922445e+06	1.58549137e+00	1.79627557e-05	1.17343630e-02	8.43695054e-12	9.48506483e-02
4.71247747e-01	1.19520001e-01	5.56640653e-03	1.46869927e+00	1.84604191e+05	3.00000000e+02	1.43606592e+03	5.92482917e+06	1.59013172e+00	1.79643254e-05	1.18192874e-02	8.93297391e-12	9.53637040e-02
4.70089525e-01	1.19520001e-01	5.56640653e-03	1.44270466e+00	1.82316179e+05	3.00000000e+02	1.47520120e+03	6.01804567e+06	1.59753464e+00	1.79619898e-05	1.23604067e-02	1.01954854e-11	9.93293738e-02
4.75906431e-01	1.19520001e-01	4.98046889e-03	1.52409239e+00	2.03080825e+05	3.00000000e+02	1.41284956e+03	7.01236469e+06	1.60897526e+00	1.79388512e-05	1.77939756e-02	1.37925273e-11	1.38436062e-01
4.74737868e-01	1.19520001e-01	4.98046889e-03	1.53182604e+00	2.02616319e+05	3.00000000e+02	1.36543049e+03	6.86504450e+06	1.58559518e+00	1.79406258e-05	1.70942788e-02	1.25058784e-11	1.33626793e-01
4.73571911e-01	1.19520001e-01	4.98046889e-03	1.52321521e+00	2.00215669e+05	3.00000000e+02	1.33511504e+03	6.73607882e+06	1.56330558e+00	1.79426459e-05	1.65412217e-02	1.14021584e-11	1.29722304e-01
4.72408548e-01	1.19520001e-01	4.98046889e-03	1.49572122e+00	1.95675434e+05	3.00000000e+02	1.32955639e+03	6.62919061e+06	1.54572946e+00	1.79446755e-05	1.62610606e-02	1.06683908e-11	1.27639945e-01
4.71247748e-01	1.19520001e-01	4.98046889e-03	1.45690127e+00	1.90264033e+05	3.00000000e+02	1.35149669e+03	6.57175286e+06	1.53792657e+00	1.79463999e-05	1.63717912e-02	1.05497260e-11	1.28231306e-01