VARIABLES ="X" "Y" "Z" "rho" "press" "temp" "tau_wall" "qdot" "yplus" "muLam" "ZMean" "ZVar" "CMean" 
Zone T ="wall" I = 8632 , F = point
5.68622500e-01	1.29320011e-01	4.39453148e-03	1.91858047e+00	2.09698440e+05	3.00000000e+02	2.18079127e+03	4.90775127e+06	1.66773045e+00	1.82098681e-05	3.68026777e-05	3.80449815e-14	3.63133900e-04
5.68622500e-01	1.29320011e-01	4.98046889e-03	1.94797406e+00	2.13365587e+05	3.00000000e+02	2.18973202e+03	4.96085411e+06	1.68390134e+00	1.82098355e-05	1.44462518e-05	1.39469741e-14	1.34361566e-04
5.86769879e-01	1.29320011e-01	2.92968761e-04	1.89518318e+00	2.08444125e+05	3.00000000e+02	2.03681025e+03	4.94163060e+06	1.60970645e+00	1.81213185e-05	1.85079625e-03	1.21822217e-12	1.69170242e-02
5.85355252e-01	1.29320011e-01	2.92968761e-04	1.94324264e+00	2.14627756e+05	3.00000000e+02	2.07496167e+03	5.03821010e+06	1.64428629e+00	1.81312071e-05	1.77059799e-03	1.32763976e-12	1.62230736e-02
5.83943754e-01	1.29320011e-01	2.92968761e-04	2.00886077e+00	2.23223018e+05	3.00000000e+02	2.11885324e+03	5.18215728e+06	1.68848438e+00	1.81411121e-05	1.68930291e-03	1.52147271e-12	1.55881351e-02
5.82535386e-01	1.29320011e-01	2.92968761e-04	2.08944046e+00	2.33887705e+05	3.00000000e+02	2.14669136e+03	5.36645777e+06	1.73277005e+00	1.81465666e-05	1.60559933e-03	1.76742542e-12	1.49200564e-02
5.81130147e-01	1.29320011e-01	2.92968761e-04	2.17618707e+00	2.45371720e+05	3.00000000e+02	2.14302466e+03	5.56072797e+06	1.76701146e+00	1.81450399e-05	1.51898008e-03	2.01045282e-12	1.42265587e-02
5.79728007e-01	1.29320011e-01	2.92968761e-04	2.25481683e+00	2.55530820e+05	3.00000000e+02	2.10078733e+03	5.70846536e+06	1.78140139e+00	1.81392985e-05	1.43008461e-03	2.13262230e-12	1.33662896e-02
5.78328996e-01	1.29320011e-01	2.92968761e-04	2.30673582e+00	2.61757974e+05	3.00000000e+02	2.03374929e+03	5.76345624e+06	1.77346026e+00	1.81326706e-05	1.34145946e-03	2.03923476e-12	1.25054315e-02
5.76933116e-01	1.29320011e-01	2.92968761e-04	2.31791209e+00	2.62604592e+05	3.00000000e+02	1.98044912e+03	5.71129148e+06	1.75304266e+00	1.81456879e-05	1.25701774e-03	1.87561837e-12	1.19450551e-02
5.75540334e-01	1.29320011e-01	2.92968761e-04	2.27672643e+00	2.56817894e+05	3.00000000e+02	1.95881958e+03	5.59496649e+06	1.72680715e+00	1.81570128e-05	1.17838780e-03	1.72500494e-12	1.13596396e-02
5.74150622e-01	1.29320011e-01	2.92968761e-04	2.18653048e+00	2.44959771e+05	3.00000000e+02	1.96173532e+03	5.42412326e+06	1.69281578e+00	1.81645177e-05	1.10456841e-03	1.55065433e-12	1.06844035e-02
5.72763980e-01	1.29320011e-01	2.92968761e-04	2.07633449e+00	2.30800226e+05	3.00000000e+02	1.98430425e+03	5.23852280e+06	1.65887514e+00	1.81666433e-05	1.03495720e-03	1.35353941e-12	9.97322115e-03
5.71380437e-01	1.29320011e-01	2.92968761e-04	1.97731517e+00	2.18112030e+05	3.00000000e+02	2.00608061e+03	5.05852386e+06	1.62758874e+00	1.81678301e-05	9.69438482e-04	1.15012468e-12	9.28860314e-03
5.69999934e-01	1.29320011e-01	2.92968761e-04	1.90106677e+00	2.08224223e+05	3.00000000e+02	2.01898442e+03	4.89194009e+06	1.60079893e+00	1.81703787e-05	9.08423921e-04	9.66851457e-13	8.66371982e-03
5.68622500e-01	1.29320011e-01	2.92968761e-04	1.84722932e+00	2.01182559e+05	3.00000000e+02	2.02852585e+03	4.75442932e+06	1.58112151e+00	1.81769508e-05	8.52022788e-04	8.33128129e-13	8.18535073e-03
5.86769879e-01	1.29320011e-01	8.78906286e-04	1.89811704e+00	2.08798121e+05	3.00000000e+02	2.07318953e+03	4.93625709e+06	1.62375475e+00	1.81382824e-05	1.71489531e-03	1.19006915e-12	1.57997841e-02
5.85355252e-01	1.29320011e-01	8.78906286e-04	1.94608346e+00	2.15097624e+05	3.00000000e+02	2.11794604e+03	5.05320824e+06	1.66119364e+00	1.81448555e-05	1.63789209e-03	1.33128802e-12	1.51954455e-02
5.83943754e-01	1.29320011e-01	8.78906286e-04	2.01050699e+00	2.23615356e+05	3.00000000e+02	2.15167066e+03	5.21588540e+06	1.70173716e+00	1.81461212e-05	1.55803218e-03	1.50975069e-12	1.45665804e-02
5.82535386e-01	1.29320011e-01	8.78906287e-04	2.08929961e+00	2.34009303e+05	3.00000000e+02	2.16301699e+03	5.40494222e+06	1.73965725e+00	1.81427130e-05	1.47454617e-03	1.69532566e-12	1.38283687e-02
5.81130147e-01	1.29320011e-01	8.78906286e-04	2.17368207e+00	2.44930512e+05	3.00000000e+02	2.14209555e+03	5.57869218e+06	1.76661298e+00	1.81347516e-05	1.38793136e-03	1.80693464e-12	1.29599811e-02
5.79728007e-01	1.29320011e-01	8.78906286e-04	2.25183933e+00	2.54727205e+05	3.00000000e+02	2.10127975e+03	5.68033170e+06	1.78055206e+00	1.81380903e-05	1.30105229e-03	1.82355031e-12	1.22405265e-02
5.78328997e-01	1.29320011e-01	8.78906287e-04	2.30197965e+00	2.60897141e+05	3.00000000e+02	2.06605436e+03	5.71709430e+06	1.78385266e+00	1.81509027e-05	1.21814055e-03	1.82768018e-12	1.17096127e-02
5.76933116e-01	1.29320011e-01	8.78906287e-04	2.30892384e+00	2.61436869e+05	3.00000000e+02	2.03202840e+03	5.68859685e+06	1.77082452e+00	1.81605819e-05	1.14020747e-03	1.77950184e-12	1.10837331e-02
5.75540334e-01	1.29320011e-01	8.78906286e-04	2.26806161e+00	2.55870903e+05	3.00000000e+02	2.00565441e+03	5.59953666e+06	1.74316672e+00	1.81657004e-05	1.06738344e-03	1.65846519e-12	1.03770508e-02
5.74150622e-01	1.29320011e-01	8.78906286e-04	2.18497632e+00	2.44911061e+05	3.00000000e+02	1.99359458e+03	5.44757693e+06	1.70571953e+00	1.81664373e-05	1.00049246e-03	1.47193377e-12	9.66612161e-03
5.72763980e-01	1.29320011e-01	8.78906287e-04	2.08160022e+00	2.31490638e+05	3.00000000e+02	2.00228646e+03	5.25848571e+06	1.66830915e+00	1.81685736e-05	9.38612957e-04	1.26118057e-12	9.00120197e-03
5.71380436e-01	1.29320011e-01	8.78906286e-04	1.98390296e+00	2.18920392e+05	3.00000000e+02	2.02338923e+03	5.06964264e+06	1.63678069e+00	1.81737702e-05	8.80022663e-04	1.06829643e-12	8.42977702e-03
5.69999934e-01	1.29320011e-01	8.78906286e-04	1.90531809e+00	2.08801148e+05	3.00000000e+02	2.04375121e+03	4.90284286e+06	1.61158475e+00	1.81794277e-05	8.24207311e-04	9.13487879e-13	7.97431733e-03
5.68622500e-01	1.29320011e-01	8.78906286e-04	1.84725143e+00	2.01293346e+05	3.00000000e+02	2.05656031e+03	4.76922022e+06	1.59145379e+00	1.81834085e-05	7.71423497e-04	7.93382515e-13	7.55881498e-03
5.86769879e-01	1.29320011e-01	1.46484381e-03	1.90079113e+00	2.09210634e+05	3.00000000e+02	2.11672592e+03	4.97865904e+06	1.64150950e+00	1.81422734e-05	1.46909011e-03	1.15614958e-12	1.37978956e-02
5.85355252e-01	1.29320011e-01	1.46484381e-03	1.94921270e+00	2.15436692e+05	3.00000000e+02	2.13679901e+03	5.10146884e+06	1.67077807e+00	1.81354478e-05	1.39411124e-03	1.21669717e-12	1.30580916e-02
5.83943754e-01	1.29320011e-01	1.46484381e-03	2.01426998e+00	2.23774586e+05	3.00000000e+02	2.15316850e+03	5.23936163e+06	1.70505853e+00	1.81340227e-05	1.31652898e-03	1.27219228e-12	1.23951352e-02
5.82535386e-01	1.29320011e-01	1.46484381e-03	2.09270075e+00	2.33986105e+05	3.00000000e+02	2.17862971e+03	5.38433921e+06	1.74688786e+00	1.81474599e-05	1.23728373e-03	1.39491873e-12	1.18775752e-02
5.81130147e-01	1.29320011e-01	1.46484381e-03	2.17458432e+00	2.44726763e+05	3.00000000e+02	2.19146587e+03	5.53822338e+06	1.78490725e+00	1.81583099e-05	1.15665880e-03	1.56211398e-12	1.12612601e-02
5.79728007e-01	1.29320011e-01	1.46484381e-03	2.24623810e+00	2.54035530e+05	3.00000000e+02	2.17274006e+03	5.66120078e+06	1.80567326e+00	1.81646992e-05	1.07581518e-03	1.67374734e-12	1.05288905e-02
5.78328997e-01	1.29320011e-01	1.46484381e-03	2.28975278e+00	2.59437245e+05	3.00000000e+02	2.12888388e+03	5.71608333e+06	1.80450278e+00	1.81655406e-05	9.97492000e-04	1.66468559e-12	9.72244718e-03
5.76933116e-01	1.29320011e-01	1.46484381e-03	2.29362176e+00	2.59485905e+05	3.00000000e+02	2.07986493e+03	5.68289860e+06	1.78486474e+00	1.81680682e-05	9.25320591e-04	1.55380781e-12	8.95229786e-03
5.75540334e-01	1.29320011e-01	1.46484381e-03	2.25768151e+00	2.54404705e+05	3.00000000e+02	2.04839755e+03	5.58162091e+06	1.75672552e+00	1.81748213e-05	8.62699795e-04	1.41103783e-12	8.36128131e-03
5.74150622e-01	1.29320011e-01	1.46484381e-03	2.18611288e+00	2.44869475e+05	3.00000000e+02	2.03745946e+03	5.43351633e+06	1.72353714e+00	1.81800774e-05	8.09855019e-04	1.25959118e-12	7.91489565e-03
5.72763980e-01	1.29320011e-01	1.46484381e-03	2.09253333e+00	2.32691612e+05	3.00000000e+02	2.04250170e+03	5.25756591e+06	1.68800809e+00	1.81835418e-05	7.63223990e-04	1.09874661e-12	7.53604115e-03
5.71380437e-01	1.29320011e-01	1.46484381e-03	1.99592189e+00	2.20325124e+05	3.00000000e+02	2.05895324e+03	5.08404546e+06	1.65504624e+00	1.81853003e-05	7.18148658e-04	9.46355688e-13	7.20212812e-03
5.69999933e-01	1.29320011e-01	1.46484381e-03	1.91235542e+00	2.09652608e+05	3.00000000e+02	2.07530459e+03	4.92416298e+06	1.62635945e+00	1.81862974e-05	6.72470556e-04	8.12429638e-13	6.84757144e-03
5.68622500e-01	1.29320011e-01	1.46484381e-03	1.84906195e+00	2.01549176e+05	3.00000000e+02	2.08642639e+03	4.79275096e+06	1.60345900e+00	1.81867460e-05	6.27165087e-04	7.04343473e-13	6.44901280e-03
5.88187665e-01	1.29320011e-01	2.05078133e-03	1.87491620e+00	2.05437227e+05	3.00000000e+02	2.11240537e+03	4.89070095e+06	1.62796799e+00	1.81496936e-05	1.21919227e-03	8.76931195e-13	1.17754233e-02
5.86769879e-01	1.29320011e-01	2.05078133e-03	1.90775966e+00	2.09834107e+05	3.00000000e+02	2.16082665e+03	4.97821762e+06	1.66011278e+00	1.81580747e-05	1.15600486e-03	9.50554389e-13	1.12763393e-02
5.85355252e-01	1.29320011e-01	2.05078133e-03	1.95711894e+00	2.16338483e+05	3.00000000e+02	2.20088784e+03	5.09938680e+06	1.69642880e+00	1.81638341e-05	1.08979737e-03	1.04156999e-12	1.06796267e-02
5.83943754e-01	1.29320011e-01	2.05078133e-03	2.02103495e+00	2.24645313e+05	3.00000000e+02	2.22596493e+03	5.24189778e+06	1.73358003e+00	1.81650991e-05	1.02002096e-03	1.12607164e-12	9.99102173e-03
5.82535386e-01	1.29320011e-01	2.05078133e-03	2.09515398e+00	2.34189185e+05	3.00000000e+02	2.23548010e+03	5.38589947e+06	1.76874706e+00	1.81661646e-05	9.46714039e-04	1.19018523e-12	9.26069859e-03
5.81130147e-01	1.29320011e-01	2.05078133e-03	2.17132290e+00	2.44017590e+05	3.00000000e+02	2.23193159e+03	5.51806024e+06	1.79856839e+00	1.81723581e-05	8.71516655e-04	1.24354911e-12	8.56100652e-03
5.79728007e-01	1.29320011e-01	2.05078133e-03	2.23669548e+00	2.52376168e+05	3.00000000e+02	2.21317060e+03	5.61572374e+06	1.81701320e+00	1.81797702e-05	7.97234917e-04	1.27649048e-12	7.94748480e-03
5.78328997e-01	1.29320011e-01	2.05078133e-03	2.27384372e+00	2.56949902e+05	3.00000000e+02	2.17865159e+03	5.65521413e+06	1.81724267e+00	1.81843117e-05	7.27631970e-04	1.24821683e-12	7.38572758e-03
5.76933116e-01	1.29320011e-01	2.05078133e-03	2.27466536e+00	2.56707731e+05	3.00000000e+02	2.14259956e+03	5.62988517e+06	1.80232772e+00	1.81857450e-05	6.67501673e-04	1.17478159e-12	6.93260554e-03
5.75540334e-01	1.29320011e-01	2.05078133e-03	2.24356333e+00	2.52433653e+05	3.00000000e+02	2.11648174e+03	5.56159557e+06	1.77897327e+00	1.81862268e-05	6.19650550e-04	1.08771425e-12	6.51405804e-03
5.74150622e-01	1.29320011e-01	2.05078133e-03	2.18509085e+00	2.44697215e+05	3.00000000e+02	2.09762558e+03	5.45115476e+06	1.74781341e+00	1.81860870e-05	5.82506570e-04	9.85912780e-13	6.14590713e-03
5.72763979e-01	1.29320011e-01	2.05078133e-03	2.10487802e+00	2.34239340e+05	3.00000000e+02	2.08468184e+03	5.30297868e+06	1.71018234e+00	1.81855541e-05	5.51443397e-04	8.67444488e-13	5.80287835e-03
5.71380436e-01	1.29320011e-01	2.05078133e-03	2.01189120e+00	2.22231905e+05	3.00000000e+02	2.07937844e+03	5.12833227e+06	1.66994399e+00	1.81845562e-05	5.20816565e-04	7.38698588e-13	5.45034004e-03
5.69999933e-01	1.29320011e-01	2.05078133e-03	1.92276123e+00	2.10819339e+05	3.00000000e+02	2.08274098e+03	4.95709314e+06	1.63400362e+00	1.81828891e-05	4.87676146e-04	6.17018858e-13	5.08599176e-03
5.68622500e-01	1.29320011e-01	2.05078133e-03	1.85314174e+00	2.01907632e+05	3.00000000e+02	2.09032579e+03	4.81086386e+06	1.60704268e+00	1.81831656e-05	4.53170021e-04	5.19176217e-13	4.75718188e-03
5.89608640e-01	1.29320011e-01	2.63671891e-03	1.86764191e+00	2.04287608e+05	3.00000000e+02	2.14094180e+03	4.86297378e+06	1.63428877e+00	1.81658631e-05	9.37613426e-04	7.01230543e-13	9.21966491e-03
5.88187664e-01	1.29320011e-01	2.63671891e-03	1.88363918e+00	2.06369622e+05	3.00000000e+02	2.17275368e+03	4.90193706e+06	1.65305783e+00	1.81698631e-05	8.87044712e-04	7.04472287e-13	8.74381392e-03
5.86769879e-01	1.29320011e-01	2.63671891e-03	1.91693102e+00	2.10742423e+05	3.00000000e+02	2.21311842e+03	4.98308905e+06	1.68247207e+00	1.81757902e-05	8.33604024e-04	7.35027193e-13	8.30737438e-03
5.85355252e-01	1.29320011e-01	2.63671891e-03	1.96669718e+00	2.17264021e+05	3.00000000e+02	2.25095490e+03	5.10030369e+06	1.71820791e+00	1.81807598e-05	7.76951121e-04	7.82075834e-13	7.84623070e-03
5.83943754e-01	1.29320011e-01	2.63671891e-03	2.02859603e+00	2.25350136e+05	3.00000000e+02	2.27751928e+03	5.23799320e+06	1.75496050e+00	1.81843201e-05	7.16699797e-04	8.28665384e-13	7.35998401e-03
5.82535386e-01	1.29320011e-01	2.63671891e-03	2.09783244e+00	2.34370021e+05	3.00000000e+02	2.28877278e+03	5.38366296e+06	1.78891345e+00	1.81858249e-05	6.53355225e-04	8.65950670e-13	6.84291837e-03
5.81130147e-01	1.29320011e-01	2.63671891e-03	2.16600705e+00	2.43162725e+05	3.00000000e+02	2.28070163e+03	5.51105284e+06	1.81451718e+00	1.81860626e-05	5.89001320e-04	8.80984625e-13	6.24021240e-03
5.79728007e-01	1.29320011e-01	2.63671891e-03	2.22036203e+00	2.50042407e+05	3.00000000e+02	2.25275064e+03	5.59755341e+06	1.82599426e+00	1.81846373e-05	5.26603885e-04	8.58428959e-13	5.60279008e-03
5.78328996e-01	1.29320011e-01	2.63671891e-03	2.24786241e+00	2.53365944e+05	3.00000000e+02	2.21325483e+03	5.63002180e+06	1.82137959e+00	1.81817509e-05	4.70417749e-04	7.96392862e-13	5.02393592e-03
5.76933116e-01	1.29320011e-01	2.63671891e-03	2.24727871e+00	2.52984061e+05	3.00000000e+02	2.18088836e+03	5.59904929e+06	1.80734721e+00	1.81860839e-05	4.24896887e-04	7.27070239e-13	4.63542924e-03
5.75540334e-01	1.29320011e-01	2.63671891e-03	2.22536927e+00	2.49911188e+05	3.00000000e+02	2.16099017e+03	5.53794674e+06	1.78984726e+00	1.81906017e-05	3.91686776e-04	6.73360660e-13	4.37328412e-03
5.74150622e-01	1.29320011e-01	2.63671891e-03	2.18328538e+00	2.44292685e+05	3.00000000e+02	2.13943587e+03	5.44788391e+06	1.76367453e+00	1.81937425e-05	3.68161890e-04	6.14678405e-13	4.17095723e-03
5.72763980e-01	1.29320011e-01	2.63671891e-03	2.11904945e+00	2.35776031e+05	3.00000000e+02	2.11727195e+03	5.31066505e+06	1.72828979e+00	1.81960826e-05	3.50157867e-04	5.43803274e-13	4.00762475e-03
5.71380436e-01	1.29320011e-01	2.63671891e-03	2.03237621e+00	2.24448562e+05	3.00000000e+02	2.10577430e+03	5.12990672e+06	1.68777355e+00	1.81982398e-05	3.33008696e-04	4.66788322e-13	3.84592198e-03
5.69999934e-01	1.29320011e-01	2.63671891e-03	1.93924113e+00	2.12572225e+05	3.00000000e+02	2.11464644e+03	4.95121883e+06	1.65190898e+00	1.82005399e-05	3.13699367e-04	3.97734439e-13	3.66012983e-03
5.68622500e-01	1.29320011e-01	2.63671891e-03	1.86215280e+00	2.02895257e+05	3.00000000e+02	2.13398559e+03	4.80799264e+06	1.62591282e+00	1.82029485e-05	2.92180280e-04	3.45114606e-13	3.44613902e-03
5.89608640e-01	1.29320011e-01	3.22265644e-03	1.88049405e+00	2.05756553e+05	3.00000000e+02	2.20364856e+03	4.88422046e+06	1.66192152e+00	1.81857926e-05	6.28514722e-04	4.99889808e-13	6.69289241e-03
5.88187665e-01	1.29320011e-01	3.22265643e-03	1.89529840e+00	2.07765453e+05	3.00000000e+02	2.23406429e+03	4.93451968e+06	1.67992088e+00	1.81858414e-05	5.89526939e-04	5.01962751e-13	6.31604877e-03
5.86769879e-01	1.29320011e-01	3.22265643e-03	1.92842233e+00	2.12088722e+05	3.00000000e+02	2.26330158e+03	5.01956517e+06	1.70565337e+00	1.81851593e-05	5.47131535e-04	5.08869143e-13	5.88316127e-03
5.85355252e-01	1.29320011e-01	3.22265644e-03	1.97740965e+00	2.18407341e+05	3.00000000e+02	2.28504726e+03	5.13044336e+06	1.73562153e+00	1.81834583e-05	5.01546939e-04	5.13075827e-13	5.41625830e-03
5.83943754e-01	1.29320011e-01	3.22265643e-03	2.03599625e+00	2.25937178e+05	3.00000000e+02	2.29668424e+03	5.25330394e+06	1.76588645e+00	1.81807566e-05	4.53235367e-04	5.06326663e-13	4.95978035e-03
5.82535386e-01	1.29320011e-01	3.22265644e-03	2.09940489e+00	2.34130660e+05	3.00000000e+02	2.30466595e+03	5.37041460e+06	1.79559958e+00	1.81877174e-05	4.03509146e-04	5.00524879e-13	4.58761980e-03
5.81130147e-01	1.29320011e-01	3.22265643e-03	2.15781433e+00	2.41607750e+05	3.00000000e+02	2.30278411e+03	5.46566241e+06	1.81901611e+00	1.81941890e-05	3.54355512e-04	4.90439639e-13	4.18380053e-03
5.79728007e-01	1.29320011e-01	3.22265643e-03	2.19995379e+00	2.46964746e+05	3.00000000e+02	2.28700891e+03	5.52788975e+06	1.82982905e+00	1.81997652e-05	3.08569134e-04	4.64231058e-13	3.76500279e-03
5.78328996e-01	1.29320011e-01	3.22265644e-03	2.21875469e+00	2.49246548e+05	3.00000000e+02	2.26728396e+03	5.54458380e+06	1.82926333e+00	1.82040061e-05	2.69710803e-04	4.29603796e-13	3.37632546e-03
5.76933116e-01	1.29320011e-01	3.22265643e-03	2.21735960e+00	2.48947868e+05	3.00000000e+02	2.25178896e+03	5.53101008e+06	1.82213812e+00	1.82069085e-05	2.40167368e-04	3.98239349e-13	3.05070397e-03
5.75540334e-01	1.29320011e-01	3.22265643e-03	2.20474212e+00	2.47227775e+05	3.00000000e+02	2.23434940e+03	5.50148378e+06	1.80970923e+00	1.82087964e-05	2.19669632e-04	3.72335339e-13	2.79646350e-03
5.74150622e-01	1.29320011e-01	3.22265644e-03	2.17872870e+00	2.43695723e+05	3.00000000e+02	2.20741530e+03	5.44045124e+06	1.78800749e+00	1.82099965e-05	2.05908308e-04	3.43940092e-13	2.60997919e-03
5.72763980e-01	1.29320011e-01	3.22265644e-03	2.12968838e+00	2.37088821e+05	3.00000000e+02	2.17364086e+03	5.32635885e+06	1.75412302e+00	1.82107350e-05	1.96160834e-04	3.07762330e-13	2.45723132e-03
5.71380437e-01	1.29320011e-01	3.22265643e-03	2.05111751e+00	2.26709972e+05	3.00000000e+02	2.14756316e+03	5.15478956e+06	1.71111211e+00	1.82106470e-05	1.87613183e-04	2.65612890e-13	2.30359511e-03
5.69999933e-01	1.29320011e-01	3.22265643e-03	1.95758698e+00	2.14718915e+05	3.00000000e+02	2.14520260e+03	4.97281510e+06	1.67073302e+00	1.82105571e-05	1.78104207e-04	2.26855304e-13	2.14138211e-03
5.68622500e-01	1.29320011e-01	3.22265643e-03	1.87529782e+00	2.04421954e+05	3.00000000e+02	2.16136892e+03	4.82737503e+06	1.64139925e+00	1.82104611e-05	1.66748769e-04	1.97070727e-13	1.96334783e-03
5.89608640e-01	1.29320011e-01	3.80859396e-03	1.89745088e+00	2.07625021e+05	3.00000000e+02	2.23232751e+03	4.91295181e+06	1.67982957e+00	1.81900797e-05	3.83149079e-04	2.90376359e-13	4.46099941e-03
5.88187664e-01	1.29320011e-01	3.80859396e-03	1.91072857e+00	2.09508786e+05	3.00000000e+02	2.26783267e+03	4.96119334e+06	1.69872762e+00	1.81935249e-05	3.56132240e-04	2.89861448e-13	4.24361852e-03
5.86769879e-01	1.29320011e-01	3.80859396e-03	1.94257410e+00	2.13727245e+05	3.00000000e+02	2.30010486e+03	5.04187935e+06	1.72461294e+00	1.81972840e-05	3.25899338e-04	2.90523138e-13	3.97584248e-03
5.85355252e-01	1.29320011e-01	3.80859396e-03	1.98936971e+00	2.19818014e+05	3.00000000e+02	2.32391980e+03	5.14453847e+06	1.75390225e+00	1.82011375e-05	2.93089935e-04	2.88396447e-13	3.65910105e-03
5.83943754e-01	1.29320011e-01	3.80859396e-03	2.04388859e+00	2.26837936e+05	3.00000000e+02	2.33680161e+03	5.25064035e+06	1.78233234e+00	1.82048222e-05	2.58660791e-04	2.80205141e-13	3.29845961e-03
5.82535386e-01	1.29320011e-01	3.80859396e-03	2.09875045e+00	2.33831782e+05	3.00000000e+02	2.33785459e+03	5.34512707e+06	1.80617776e+00	1.82080843e-05	2.24036340e-04	2.65741632e-13	2.90123908e-03
5.81130147e-01	1.29320011e-01	3.80859396e-03	2.14425960e+00	2.39584890e+05	3.00000000e+02	2.32912499e+03	5.41560588e+06	1.82198025e+00	1.82107155e-05	1.90936394e-04	2.46130573e-13	2.47269151e-03
5.79728007e-01	1.29320011e-01	3.80859396e-03	2.17254658e+00	2.43146671e+05	3.00000000e+02	2.31423253e+03	5.46016915e+06	1.82811153e+00	1.82104616e-05	1.61583858e-04	2.23155657e-13	2.03952203e-03
5.78328996e-01	1.29320011e-01	3.80859396e-03	2.18273974e+00	2.44440930e+05	3.00000000e+02	2.30128290e+03	5.47879668e+06	1.82727846e+00	1.82102893e-05	1.37941370e-04	2.01892327e-13	1.69198848e-03
5.76933116e-01	1.29320011e-01	3.80859396e-03	2.18315988e+00	2.44522201e+05	3.00000000e+02	2.29148637e+03	5.48452473e+06	1.82357130e+00	1.82101808e-05	1.20692563e-04	1.85658167e-13	1.43794531e-03
5.75540334e-01	1.29320011e-01	3.80859396e-03	2.18118768e+00	2.44243785e+05	3.00000000e+02	2.27445913e+03	5.48030731e+06	1.81596915e+00	1.82101162e-05	1.08985196e-04	1.73009062e-13	1.26906034e-03
5.74150622e-01	1.29320011e-01	3.80859396e-03	2.16981088e+00	2.42584189e+05	3.00000000e+02	2.24211773e+03	5.44267007e+06	1.79830757e+00	1.82100765e-05	1.01201676e-04	1.59348169e-13	1.15530600e-03
5.72763980e-01	1.29320011e-01	3.80859396e-03	2.13458022e+00	2.37696896e+05	3.00000000e+02	2.20022770e+03	5.34679422e+06	1.76691023e+00	1.82100512e-05	9.59769790e-05	1.42127035e-13	1.07669164e-03
5.71380436e-01	1.29320011e-01	3.80859396e-03	2.06652601e+00	2.28588003e+05	3.00000000e+02	2.16587866e+03	5.18645040e+06	1.72489382e+00	1.82100328e-05	9.20496930e-05	1.22878137e-13	1.01605399e-03
5.69999934e-01	1.29320011e-01	3.80859396e-03	1.97768275e+00	2.17114664e+05	3.00000000e+02	2.15643837e+03	5.00631790e+06	1.68372868e+00	1.82100159e-05	8.82227134e-05	1.05751958e-13	9.58667222e-04
5.68622500e-01	1.29320011e-01	3.80859396e-03	1.89415749e+00	2.06678110e+05	3.00000000e+02	2.17161902e+03	4.86184995e+06	1.65358145e+00	1.82099966e-05	8.34743621e-05	9.29233025e-14	8.92772206e-04
5.89608640e-01	1.29320011e-01	4.39453149e-03	1.91976031e+00	2.10304303e+05	3.00000000e+02	2.27070556e+03	4.94014938e+06	1.70241760e+00	1.82084681e-05	2.13112037e-04	1.56753888e-13	2.85335695e-03
5.88187665e-01	1.29320011e-01	4.39453149e-03	1.93100762e+00	2.11894996e+05	3.00000000e+02	2.29912565e+03	4.98105128e+06	1.71790781e+00	1.82099641e-05	1.95943542e-04	1.52211580e-13	2.61401593e-03
5.86769879e-01	1.29320011e-01	4.39453149e-03	1.96034685e+00	2.15705157e+05	3.00000000e+02	2.32282088e+03	5.04850159e+06	1.73974500e+00	1.82106027e-05	1.76231126e-04	1.46796564e-13	2.32363631e-03
5.85355252e-01	1.29320011e-01	4.39453149e-03	2.00272683e+00	2.21159681e+05	3.00000000e+02	2.33743256e+03	5.13752824e+06	1.76398906e+00	1.82104263e-05	1.54840998e-04	1.39170767e-13	2.00580288e-03
5.83943754e-01	1.29320011e-01	4.39453148e-03	2.05032313e+00	2.27238345e+05	3.00000000e+02	2.34141163e+03	5.22782758e+06	1.78636105e+00	1.82102705e-05	1.32813689e-04	1.28917936e-13	1.68528023e-03
5.82535386e-01	1.29320011e-01	4.39453148e-03	2.09423795e+00	2.32816769e+05	3.00000000e+02	2.33486905e+03	5.30451141e+06	1.80287887e+00	1.82101417e-05	1.11380662e-04	1.16129357e-13	1.37420326e-03
5.81130147e-01	1.29320011e-01	4.39453148e-03	2.12558416e+00	2.36808718e+05	3.00000000e+02	2.32298063e+03	5.35883865e+06	1.81170110e+00	1.82100440e-05	9.18784620e-05	1.02243413e-13	1.09328992e-03
5.79728007e-01	1.29320011e-01	4.39453148e-03	2.14087050e+00	2.38803076e+05	3.00000000e+02	2.31332231e+03	5.39037300e+06	1.81442691e+00	1.82099767e-05	7.55839255e-05	8.96477919e-14	8.64175810e-04
5.78328996e-01	1.29320011e-01	4.39453149e-03	2.14508908e+00	2.39474668e+05	3.00000000e+02	2.31117182e+03	5.41216706e+06	1.81537352e+00	1.82099345e-05	6.31543565e-05	8.01034020e-14	6.98137577e-04
5.76933116e-01	1.29320011e-01	4.39453148e-03	2.14913633e+00	2.40156069e+05	3.00000000e+02	2.31056204e+03	5.43634548e+06	1.81684810e+00	1.82099091e-05	5.43575312e-05	7.36942753e-14	5.85810310e-04
5.75540334e-01	1.29320011e-01	4.39453148e-03	2.15660648e+00	2.41162776e+05	3.00000000e+02	2.29757957e+03	5.45431182e+06	1.81488420e+00	1.82098937e-05	4.83501741e-05	6.86935451e-14	5.11010896e-04
5.74150622e-01	1.29320011e-01	4.39453149e-03	2.15647045e+00	2.40966997e+05	3.00000000e+02	2.26546934e+03	5.43658087e+06	1.80210158e+00	1.82098841e-05	4.42537577e-05	6.31346584e-14	4.59880034e-04
5.72763980e-01	1.29320011e-01	4.39453149e-03	2.13259648e+00	2.37530500e+05	3.00000000e+02	2.22247984e+03	5.35864825e+06	1.77501415e+00	1.82098780e-05	4.15350852e-05	5.62793886e-14	4.25294229e-04
5.71380437e-01	1.29320011e-01	4.39453149e-03	2.07648173e+00	2.29915865e+05	3.00000000e+02	2.18538570e+03	5.21630045e+06	1.73682779e+00	1.82098742e-05	3.97555799e-05	4.89783313e-14	4.01753212e-04
5.69999933e-01	1.29320011e-01	4.39453148e-03	1.99764724e+00	2.19627656e+05	3.00000000e+02	2.17011567e+03	5.04721272e+06	1.69757731e+00	1.82098713e-05	3.83995459e-05	4.26830375e-14	3.83413895e-04
5.88187664e-01	1.29320011e-01	4.98046889e-03	1.95590662e+00	2.14628241e+05	3.00000000e+02	2.29662781e+03	4.99438132e+06	1.72799780e+00	1.82100768e-05	9.74664914e-05	6.70294002e-14	1.21591269e-03
5.86769879e-01	1.29320011e-01	4.98046889e-03	1.98034339e+00	2.17842115e+05	3.00000000e+02	2.31444366e+03	5.05421221e+06	1.74549516e+00	1.82100235e-05	8.59431737e-05	6.24478311e-14	1.04877091e-03
5.85355252e-01	1.29320011e-01	4.98046889e-03	2.01621063e+00	2.22455960e+05	3.00000000e+02	2.32285534e+03	5.12770131e+06	1.76443357e+00	1.82099736e-05	7.35332674e-05	5.67864132e-14	8.73161219e-04
5.83943754e-01	1.29320011e-01	4.98046889e-03	2.05463662e+00	2.27345655e+05	3.00000000e+02	2.32059008e+03	5.19784124e+06	1.78030337e+00	1.82099314e-05	6.11339711e-05	5.01915082e-14	7.03387806e-04
5.82535386e-01	1.29320011e-01	4.98046889e-03	2.08607836e+00	2.31342179e+05	3.00000000e+02	2.31137913e+03	5.25299599e+06	1.79031300e+00	1.82098989e-05	4.96358505e-05	4.32510858e-14	5.51696813e-04
5.81130147e-01	1.29320011e-01	4.98046889e-03	2.10356596e+00	2.33618476e+05	3.00000000e+02	2.30317818e+03	5.28884651e+06	1.79461150e+00	1.82098759e-05	3.97958712e-05	3.69126012e-14	4.27651454e-04
5.79728007e-01	1.29320011e-01	4.98046889e-03	2.10819163e+00	2.34368140e+05	3.00000000e+02	2.30366520e+03	5.31396317e+06	1.79677499e+00	1.82098608e-05	3.20622857e-05	3.20015421e-14	3.34848809e-04
5.78328997e-01	1.29320011e-01	4.98046889e-03	2.10950076e+00	2.34798214e+05	3.00000000e+02	2.31269998e+03	5.34381838e+06	1.80085475e+00	1.82098514e-05	2.64080159e-05	2.86916824e-14	2.69709001e-04
5.76933116e-01	1.29320011e-01	4.98046889e-03	2.11789272e+00	2.36123465e+05	3.00000000e+02	2.31904253e+03	5.38429198e+06	1.80690646e+00	1.82098455e-05	2.24252519e-05	2.65126011e-14	2.24920692e-04
5.75540334e-01	1.29320011e-01	4.98046889e-03	2.13224682e+00	2.38057949e+05	3.00000000e+02	2.30933746e+03	5.41856818e+06	1.80922201e+00	1.82098418e-05	1.96150395e-05	2.46403320e-14	1.93608964e-04
5.74150622e-01	1.29320011e-01	4.98046889e-03	2.13941576e+00	2.38835576e+05	3.00000000e+02	2.28014775e+03	5.41646300e+06	1.80077136e+00	1.82098392e-05	1.76198883e-05	2.25127112e-14	1.71429005e-04
5.72763980e-01	1.29320011e-01	4.98046889e-03	2.12443957e+00	2.36569387e+05	3.00000000e+02	2.24046768e+03	5.35593569e+06	1.77877516e+00	1.82098376e-05	1.62712157e-05	2.00292350e-14	1.56259465e-04
5.71380436e-01	1.29320011e-01	4.98046889e-03	2.08098702e+00	2.30589667e+05	3.00000000e+02	2.20513046e+03	5.23715546e+06	1.74655142e+00	1.82098366e-05	1.54390039e-05	1.75444009e-14	1.46553554e-04
5.69999934e-01	1.29320011e-01	4.98046889e-03	2.01658103e+00	2.22078584e+05	3.00000000e+02	2.18630710e+03	5.08951827e+06	1.71195751e+00	1.82098361e-05	1.49332236e-05	1.54696189e-14	1.40282679e-04
5.88187664e-01	1.29320011e-01	5.56640653e-03	1.98522010e+00	2.17888205e+05	3.00000000e+02	2.27530605e+03	5.00583178e+06	1.73281667e+00	1.82098858e-05	4.37184806e-05	2.58020440e-14	4.93926351e-04
5.86769879e-01	1.29320011e-01	5.56640653e-03	2.00267848e+00	2.20191016e+05	3.00000000e+02	2.28733988e+03	5.04837381e+06	1.74501697e+00	1.82098726e-05	3.77858249e-05	2.32070086e-14	4.17884678e-04
5.85355252e-01	1.29320011e-01	5.56640653e-03	2.02934755e+00	2.23602255e+05	3.00000000e+02	2.29055826e+03	5.10025651e+06	1.75783403e+00	1.82098604e-05	3.14821683e-05	2.02423469e-14	3.39625361e-04
5.83943754e-01	1.29320011e-01	5.56640653e-03	2.05642630e+00	2.27029779e+05	3.00000000e+02	2.28529403e+03	5.14771632e+06	1.76748949e+00	1.82098502e-05	2.54148282e-05	1.71690392e-14	2.66990578e-04
5.82535386e-01	1.29320011e-01	5.56640653e-03	2.07482279e+00	2.29387896e+05	3.00000000e+02	2.27752483e+03	5.18247093e+06	1.77235808e+00	1.82098426e-05	2.00866912e-05	1.43478878e-14	2.05705243e-04
5.81130147e-01	1.29320011e-01	5.56640653e-03	2.08029036e+00	2.30206081e+05	3.00000000e+02	2.27593400e+03	5.20519464e+06	1.77407241e+00	1.82098373e-05	1.57954276e-05	1.20978200e-14	1.58238250e-04
5.79728007e-01	1.29320011e-01	5.56640653e-03	2.07799067e+00	2.30177360e+05	3.00000000e+02	2.28578149e+03	5.22907967e+06	1.77692366e+00	1.82098337e-05	1.25857009e-05	1.05356494e-14	1.23822980e-04
5.78328997e-01	1.29320011e-01	5.56640653e-03	2.07940098e+00	2.30696226e+05	3.00000000e+02	2.30191399e+03	5.26711747e+06	1.78378842e+00	1.82098314e-05	1.02835988e-05	9.53071330e-15	9.96057554e-05
5.76933116e-01	1.29320011e-01	5.56640653e-03	2.09167161e+00	2.32543123e+05	3.00000000e+02	2.31130398e+03	5.31760188e+06	1.79268916e+00	1.82098299e-05	8.63004061e-06	8.81314440e-15	8.24030848e-05
5.75540334e-01	1.29320011e-01	5.56640653e-03	2.10972559e+00	2.34963866e+05	3.00000000e+02	2.30392699e+03	5.36021926e+06	1.79753384e+00	1.82098288e-05	7.41359162e-06	8.12207687e-15	6.98347355e-05
5.74150622e-01	1.29320011e-01	5.56640653e-03	2.12059989e+00	2.36251774e+05	3.00000000e+02	2.27942331e+03	5.36816177e+06	1.79255137e+00	1.82098281e-05	6.51678837e-06	7.34868100e-15	6.06066844e-05
5.72763979e-01	1.29320011e-01	5.56640653e-03	2.11247108e+00	2.34921229e+05	3.00000000e+02	2.24629505e+03	5.32462109e+06	1.77606375e+00	1.82098275e-05	5.89375180e-06	6.51437285e-15	5.41595200e-05
5.71380436e-01	1.29320011e-01	5.56640653e-03	2.08182610e+00	2.30636637e+05	3.00000000e+02	2.21606928e+03	5.23339954e+06	1.75123191e+00	1.82098272e-05	5.50556142e-06	5.73914819e-15	5.00403290e-05
5.69999934e-01	1.29320011e-01	5.56640653e-03	2.03455011e+00	2.24300257e+05	3.00000000e+02	2.19657237e+03	5.11640815e+06	1.72360096e+00	1.82098271e-05	5.28418798e-06	5.11432602e-15	4.75513607e-05
5.88187664e-01	1.29320011e-01	6.15234417e-03	2.01852219e+00	2.21426634e+05	3.00000000e+02	2.23592594e+03	4.99629518e+06	1.73210790e+00	1.82098398e-05	1.77457561e-05	8.81405152e-15	1.85290304e-04
5.86769879e-01	1.29320011e-01	6.15234417e-03	2.02720520e+00	2.22583465e+05	3.00000000e+02	2.24258365e+03	5.01842753e+06	1.73841208e+00	1.82098365e-05	1.50571601e-05	7.63693659e-15	1.54499666e-04
5.85355252e-01	1.29320011e-01	6.15234417e-03	2.04231746e+00	2.24504385e+05	3.00000000e+02	2.24245771e+03	5.04648401e+06	1.74483104e+00	1.82098334e-05	1.22538868e-05	6.39708086e-15	1.23392459e-04