VARIABLES ="X" "Y" "Z" "rho" "press" "temp" "tau_wall" "qdot" "yplus" "muLam" "ZMean" "ZVar" "CMean" 
Zone T ="wall" I = 7342 , F = point
4.93749917e-01	1.19520001e-01	9.08203144e-03	1.55351052e+00	1.81141986e+05	3.00000000e+02	2.15046702e+03	4.90283746e+06	1.97427582e+00	1.82098367e-05	1.49585660e-05	5.06402072e-16	1.65058651e-04
4.92541760e-01	1.19520001e-01	9.08203143e-03	1.59592083e+00	1.86703412e+05	3.00000000e+02	2.13386701e+03	4.96633707e+06	1.99330483e+00	1.82098351e-05	1.35498626e-05	4.16724819e-16	1.48325445e-04
4.91336287e-01	1.19520001e-01	9.08203144e-03	1.63198029e+00	1.91337600e+05	3.00000000e+02	2.11280796e+03	5.00824357e+06	2.00572725e+00	1.82098336e-05	1.22321248e-05	3.04171573e-16	1.32671950e-04
4.90133480e-01	1.19520001e-01	9.08203144e-03	1.65932318e+00	1.94808120e+05	3.00000000e+02	2.09251950e+03	5.03451946e+06	2.01272613e+00	1.82098323e-05	1.09965973e-05	1.79632918e-16	1.17980557e-04
4.88933340e-01	1.19520001e-01	9.08203144e-03	1.67632746e+00	1.96934324e+05	3.00000000e+02	2.07563435e+03	5.04730484e+06	2.01483423e+00	1.82098311e-05	9.83383215e-06	5.81199128e-17	1.04140803e-04
4.87735882e-01	1.19520001e-01	9.08203143e-03	1.68234327e+00	1.97658279e+05	3.00000000e+02	2.06362475e+03	5.04904037e+06	2.01259859e+00	1.82098301e-05	8.74403547e-06	-3.77272250e-17	9.11757147e-05
4.86541077e-01	1.19520001e-01	9.08203144e-03	1.67806415e+00	1.97084832e+05	3.00000000e+02	2.05550959e+03	5.04216887e+06	2.00608137e+00	1.82098292e-05	7.74380405e-06	-9.30652491e-17	7.93258656e-05
4.93749916e-01	1.19520001e-01	8.49609403e-03	1.53192357e+00	1.80060338e+05	3.00000000e+02	2.21745866e+03	5.05380264e+06	1.99080178e+00	1.82099470e-05	6.49226238e-05	4.66619482e-15	7.87105622e-04
4.92541761e-01	1.19520001e-01	8.49609403e-03	1.57051130e+00	1.85215896e+05	3.00000000e+02	2.20334864e+03	5.11888233e+06	2.00929635e+00	1.82099407e-05	6.29603309e-05	4.43071654e-15	7.62737083e-04
4.91336286e-01	1.19520001e-01	8.49609403e-03	1.60313144e+00	1.89491017e+05	3.00000000e+02	2.18549070e+03	5.16297695e+06	2.02181341e+00	1.82099334e-05	6.06027272e-05	4.01965224e-15	7.33266395e-04
4.90133479e-01	1.19520001e-01	8.49609403e-03	1.62770213e+00	1.92683991e+05	3.00000000e+02	2.16894808e+03	5.19235150e+06	2.02952442e+00	1.82099246e-05	5.76411891e-05	3.43362864e-15	6.95994520e-04
4.88933340e-01	1.19520001e-01	8.49609403e-03	1.64290783e+00	1.94656577e+05	3.00000000e+02	2.15591509e+03	5.20986509e+06	2.03284805e+00	1.82099139e-05	5.39198545e-05	2.62717652e-15	6.48834653e-04
4.87735882e-01	1.19520001e-01	8.49609403e-03	1.64762106e+00	1.95275430e+05	3.00000000e+02	2.14754212e+03	5.21617016e+06	2.03180628e+00	1.82099016e-05	4.93776250e-05	1.69635073e-15	5.90713523e-04
4.86541077e-01	1.19520001e-01	8.49609403e-03	1.64190606e+00	1.94584404e+05	3.00000000e+02	2.14500695e+03	5.21510456e+06	2.02708335e+00	1.82098883e-05	4.41094148e-05	9.03732879e-16	5.21576246e-04
4.93749917e-01	1.19520001e-01	7.91015663e-03	1.50367208e+00	1.78497227e+05	3.00000000e+02	2.28088085e+03	5.23391482e+06	2.00076316e+00	1.82063366e-05	2.52453503e-04	4.50019131e-14	3.10848481e-03
4.92541761e-01	1.19520001e-01	7.91015663e-03	1.53787681e+00	1.83184050e+05	3.00000000e+02	2.27087744e+03	5.30112170e+06	2.01899784e+00	1.82059000e-05	2.57149450e-04	4.59348015e-14	3.15824468e-03
4.91336286e-01	1.19520001e-01	7.91015662e-03	1.56648506e+00	1.87078697e+05	3.00000000e+02	2.25945964e+03	5.35240565e+06	2.03257748e+00	1.82057552e-05	2.59075115e-04	4.50313121e-14	3.17363642e-03
4.90133480e-01	1.19520001e-01	7.91015662e-03	1.58780399e+00	1.89988982e+05	3.00000000e+02	2.25043967e+03	5.39021131e+06	2.04223158e+00	1.82061254e-05	2.56178865e-04	4.21723751e-14	3.13002746e-03
4.88933340e-01	1.19520001e-01	7.91015662e-03	1.60132552e+00	1.91859729e+05	3.00000000e+02	2.24474580e+03	5.41619374e+06	2.04819848e+00	1.82071404e-05	2.46831169e-04	3.74119488e-14	3.00772713e-03
4.87735883e-01	1.19520001e-01	7.91015662e-03	1.60598861e+00	1.92537341e+05	3.00000000e+02	2.24225004e+03	5.42842308e+06	2.04985584e+00	1.82087577e-05	2.30090673e-04	3.07580164e-14	2.79519503e-03
4.86541077e-01	1.19520001e-01	7.91015663e-03	1.60141069e+00	1.91971314e+05	3.00000000e+02	2.24365083e+03	5.42693866e+06	2.04735573e+00	1.82106763e-05	2.06486734e-04	2.35580311e-14	2.49931302e-03
4.92541760e-01	1.19520001e-01	7.32421899e-03	1.50829669e+00	1.80025524e+05	3.00000000e+02	2.23420177e+03	5.32003676e+06	1.98667898e+00	1.81747009e-05	8.47343874e-04	3.08966059e-13	8.39043575e-03
4.91336286e-01	1.19520001e-01	7.32421899e-03	1.53243908e+00	1.83377417e+05	3.00000000e+02	2.22108108e+03	5.37245949e+06	1.99699903e+00	1.81713145e-05	8.77138039e-04	3.17225165e-13	8.64035264e-03
4.90133480e-01	1.19520001e-01	7.32421899e-03	1.55039835e+00	1.85918123e+05	3.00000000e+02	2.21504585e+03	5.41509324e+06	2.00607720e+00	1.81700345e-05	8.87387064e-04	3.11331536e-13	8.72892840e-03
4.88933340e-01	1.19520001e-01	7.32421899e-03	1.56284836e+00	1.87777426e+05	3.00000000e+02	2.21645202e+03	5.45312231e+06	2.01454068e+00	1.81719666e-05	8.70592379e-04	2.91154258e-13	8.59599788e-03
4.87735883e-01	1.19520001e-01	7.32421899e-03	1.56786260e+00	1.88500835e+05	3.00000000e+02	2.22180766e+03	5.46397930e+06	2.01964310e+00	1.81770325e-05	8.23206864e-04	2.53719213e-13	8.20110907e-03
4.86541078e-01	1.19520001e-01	7.32421899e-03	1.56706094e+00	1.88367390e+05	3.00000000e+02	2.23239785e+03	5.45949426e+06	2.02322639e+00	1.81833812e-05	7.46002301e-04	2.04725600e-13	7.53575116e-03
4.92541760e-01	1.19520001e-01	6.73828157e-03	1.47572690e+00	1.76430320e+05	3.00000000e+02	2.08769628e+03	5.31943361e+06	1.90718803e+00	1.81022904e-05	2.33612142e-03	1.38002731e-12	2.11271658e-02
4.91336286e-01	1.19520001e-01	6.73828158e-03	1.49782546e+00	1.79152642e+05	3.00000000e+02	2.08664002e+03	5.30996292e+06	1.92029888e+00	1.81082269e-05	2.45736011e-03	1.50012173e-12	2.21242763e-02
4.90133480e-01	1.19520001e-01	6.73828157e-03	1.51344894e+00	1.81382118e+05	3.00000000e+02	2.08609598e+03	5.34553620e+06	1.93007187e+00	1.81078935e-05	2.51773064e-03	1.53411677e-12	2.26259060e-02
4.88933340e-01	1.19520001e-01	6.73828158e-03	1.52358466e+00	1.82886155e+05	3.00000000e+02	2.09169055e+03	5.37858800e+06	1.93903980e+00	1.81086333e-05	2.49719628e-03	1.48565274e-12	2.24462902e-02
4.87735883e-01	1.19520001e-01	6.73828158e-03	1.52876563e+00	1.83645991e+05	3.00000000e+02	2.10485115e+03	5.40727775e+06	1.94875156e+00	1.81056891e-05	2.38372808e-03	1.34471806e-12	2.14773525e-02
4.86541078e-01	1.19520001e-01	6.73828158e-03	1.53168921e+00	1.84680237e+05	3.00000000e+02	2.11418890e+03	5.49910700e+06	1.95484513e+00	1.81065309e-05	2.17745022e-03	1.08610169e-12	1.96710980e-02
4.92541761e-01	1.19520001e-01	6.15234417e-03	1.43427822e+00	1.72351977e+05	3.00000000e+02	1.87681769e+03	5.28997412e+06	1.79128503e+00	1.80157951e-05	5.58413308e-03	4.47344037e-12	4.75981207e-02
4.91336286e-01	1.19520001e-01	6.15234417e-03	1.45118691e+00	1.74776234e+05	3.00000000e+02	1.87348651e+03	5.32341994e+06	1.80077178e+00	1.80102055e-05	5.91312937e-03	4.88746363e-12	5.02055599e-02
4.90133480e-01	1.19520001e-01	6.15234417e-03	1.46194429e+00	1.76695146e+05	3.00000000e+02	1.87713810e+03	5.38967738e+06	1.80971714e+00	1.80050034e-05	6.09468536e-03	5.12714162e-12	5.17021279e-02
4.88933340e-01	1.19520001e-01	6.15234417e-03	1.47183348e+00	1.78243795e+05	3.00000000e+02	1.88822509e+03	5.43317226e+06	1.82119374e+00	1.80048893e-05	6.07992363e-03	5.08078576e-12	5.15925648e-02
4.87735882e-01	1.19520001e-01	6.15234417e-03	1.48186652e+00	1.79558506e+05	3.00000000e+02	1.91167392e+03	5.45095522e+06	1.83762370e+00	1.80154557e-05	5.83517073e-03	4.74873679e-12	4.95889144e-02
4.86541077e-01	1.19520001e-01	6.15234417e-03	1.49708801e+00	1.81281260e+05	3.00000000e+02	1.95012119e+03	5.45721241e+06	1.86478451e+00	1.80225483e-05	5.37952784e-03	4.26846624e-12	4.59436236e-02
4.92541761e-01	1.19520001e-01	5.56640653e-03	1.36944422e+00	1.68700822e+05	3.00000000e+02	1.68778812e+03	5.46550774e+06	1.66474317e+00	1.79628101e-05	1.16943918e-02	1.09083672e-11	9.45613562e-02
4.91336287e-01	1.19520001e-01	5.56640653e-03	1.37728177e+00	1.70655601e+05	3.00000000e+02	1.68181226e+03	5.55959819e+06	1.66690395e+00	1.79589097e-05	1.23411413e-02	1.17053006e-11	9.94372491e-02
4.90133479e-01	1.19520001e-01	5.56640653e-03	1.38487799e+00	1.72329119e+05	3.00000000e+02	1.68794924e+03	5.63737204e+06	1.67476543e+00	1.79565064e-05	1.27009889e-02	1.23097841e-11	1.02165136e-01
4.88933340e-01	1.19520001e-01	5.56640653e-03	1.39483201e+00	1.74016163e+05	3.00000000e+02	1.70712315e+03	5.70217287e+06	1.69040775e+00	1.79552843e-05	1.26882403e-02	1.27007145e-11	1.02167471e-01
4.87735882e-01	1.19520001e-01	5.56640653e-03	1.41031063e+00	1.76019573e+05	3.00000000e+02	1.73584184e+03	5.74225873e+06	1.71384371e+00	1.79569112e-05	1.22683818e-02	1.27537221e-11	9.91199570e-02
4.86541077e-01	1.19520001e-01	5.56640653e-03	1.43369586e+00	1.78724778e+05	3.00000000e+02	1.76911886e+03	5.76432359e+06	1.74425217e+00	1.79592474e-05	1.14917227e-02	1.23708359e-11	9.33607646e-02
4.91336286e-01	1.19520001e-01	4.98046889e-03	1.27295831e+00	1.66897473e+05	3.00000000e+02	1.55929042e+03	6.15893497e+06	1.54416631e+00	1.79459687e-05	2.18670466e-02	2.00658494e-11	1.61972870e-01
4.90133480e-01	1.19520001e-01	4.98046889e-03	1.27729505e+00	1.68518189e+05	3.00000000e+02	1.57786325e+03	6.28305647e+06	1.55611432e+00	1.79444098e-05	2.23501421e-02	2.19035400e-11	1.64813822e-01
4.88933340e-01	1.19520001e-01	4.98046889e-03	1.28834948e+00	1.70499092e+05	3.00000000e+02	1.60344308e+03	6.37241641e+06	1.57547302e+00	1.79441558e-05	2.23308412e-02	2.36877089e-11	1.64756790e-01
4.87735882e-01	1.19520001e-01	4.98046889e-03	1.30879057e+00	1.73195952e+05	3.00000000e+02	1.62922628e+03	6.42662289e+06	1.60057952e+00	1.79448120e-05	2.18238731e-02	2.51136885e-11	1.61931719e-01
4.86541077e-01	1.19520001e-01	4.98046889e-03	1.33975365e+00	1.76805277e+05	3.00000000e+02	1.65140283e+03	6.44899766e+06	1.63031115e+00	1.79456367e-05	2.08763663e-02	2.60234851e-11	1.56485947e-01
4.91336286e-01	1.19520001e-01	4.39453149e-03	1.15715746e+00	1.63477671e+05	3.00000000e+02	1.54327696e+03	7.01074516e+06	1.46985823e+00	1.78827004e-05	3.25133346e-02	3.05430395e-11	2.11108775e-01
4.90133480e-01	1.19520001e-01	4.39453148e-03	1.16201522e+00	1.65215397e+05	3.00000000e+02	1.56713577e+03	7.13644269e+06	1.48466884e+00	1.78780443e-05	3.30044447e-02	3.37874938e-11	2.12596245e-01
4.88933340e-01	1.19520001e-01	4.39453149e-03	1.17485964e+00	1.67620441e+05	3.00000000e+02	1.59232709e+03	7.24141932e+06	1.50475445e+00	1.78786154e-05	3.30355223e-02	3.70810075e-11	2.12528395e-01
4.87735883e-01	1.19520001e-01	4.39453149e-03	1.19759202e+00	1.71009810e+05	3.00000000e+02	1.61374274e+03	7.33190625e+06	1.52901582e+00	1.78833965e-05	3.26415284e-02	4.04229670e-11	2.11136990e-01
4.86541078e-01	1.19520001e-01	4.39453149e-03	1.23048270e+00	1.75439583e+05	3.00000000e+02	1.62703836e+03	7.40523176e+06	1.55553212e+00	1.78915535e-05	3.18584093e-02	4.36694907e-11	2.08422604e-01
4.85348896e-01	1.19520001e-01	4.39453149e-03	1.27296030e+00	1.80807180e+05	3.00000000e+02	1.62863269e+03	7.45118383e+06	1.58201687e+00	1.79018650e-05	3.07329993e-02	4.65361796e-11	2.04336307e-01
4.91336287e-01	1.19520001e-01	3.80859396e-03	1.05170692e+00	1.60271605e+05	3.00000000e+02	1.59633009e+03	7.68656876e+06	1.43584476e+00	1.77497243e-05	4.26975526e-02	4.95539814e-11	2.33326208e-01
4.90133480e-01	1.19520001e-01	3.80859396e-03	1.05856488e+00	1.62299653e+05	3.00000000e+02	1.62133311e+03	7.80318601e+06	1.45235768e+00	1.77423713e-05	4.31878540e-02	5.42560423e-11	2.33887015e-01
4.88933340e-01	1.19520001e-01	3.80859396e-03	1.07372552e+00	1.65228225e+05	3.00000000e+02	1.64487828e+03	7.92274476e+06	1.47344751e+00	1.77406382e-05	4.32880397e-02	5.87629460e-11	2.34026667e-01
4.87735883e-01	1.19520001e-01	3.80859396e-03	1.09819907e+00	1.69266247e+05	3.00000000e+02	1.66221501e+03	8.04664260e+06	1.49771344e+00	1.77437657e-05	4.30411316e-02	6.29734175e-11	2.33809874e-01
4.86541078e-01	1.19520001e-01	3.80859396e-03	1.13167453e+00	1.74378326e+05	3.00000000e+02	1.66880149e+03	8.16952988e+06	1.52272199e+00	1.77514109e-05	4.24944524e-02	6.67818138e-11	2.33245736e-01
4.85348895e-01	1.19520001e-01	3.80859396e-03	1.17279624e+00	1.80371124e+05	3.00000000e+02	1.66217383e+03	8.28237486e+06	1.54614230e+00	1.77619411e-05	4.16883175e-02	7.02695459e-11	2.32320629e-01
4.91336287e-01	1.19520001e-01	3.22265644e-03	9.53756162e-01	1.57347251e+05	3.00000000e+02	1.63703614e+03	8.07863479e+06	1.39758583e+00	1.75857019e-05	5.35773935e-02	8.74475810e-11	2.40160090e-01
4.90133479e-01	1.19520001e-01	3.22265643e-03	9.62930310e-01	1.59796732e+05	3.00000000e+02	1.66240820e+03	8.19574477e+06	1.41580688e+00	1.75773189e-05	5.40845312e-02	9.46509663e-11	2.40338121e-01
4.88933340e-01	1.19520001e-01	3.22265644e-03	9.80556025e-01	1.63270277e+05	3.00000000e+02	1.68489840e+03	8.32567032e+06	1.43856184e+00	1.75745784e-05	5.41753298e-02	1.00530164e-10	2.40447777e-01
4.87735882e-01	1.19520001e-01	3.22265644e-03	1.00678864e+00	1.67857753e+05	3.00000000e+02	1.70067600e+03	8.46643951e+06	1.46431023e+00	1.75766957e-05	5.39239784e-02	1.05232528e-10	2.40510735e-01
4.86541078e-01	1.19520001e-01	3.22265643e-03	1.04092371e+00	1.73507450e+05	3.00000000e+02	1.70655285e+03	8.61746923e+06	1.49100519e+00	1.75824970e-05	5.33985099e-02	1.08995786e-10	2.40527769e-01
4.85348895e-01	1.19520001e-01	3.22265643e-03	1.08133662e+00	1.79959592e+05	3.00000000e+02	1.70122513e+03	8.77207185e+06	1.51650865e+00	1.75916608e-05	5.26517485e-02	1.12266276e-10	2.40490510e-01
4.91336287e-01	1.19520001e-01	2.63671891e-03	8.50558197e-01	1.54822597e+05	3.00000000e+02	1.63506224e+03	8.24064707e+06	1.33726456e+00	1.73457152e-05	6.81985768e-02	1.64328050e-10	2.41018884e-01
4.90133480e-01	1.19520001e-01	2.63671891e-03	8.61579381e-01	1.57731350e+05	3.00000000e+02	1.65754341e+03	8.36187450e+06	1.35595995e+00	1.73349913e-05	6.87391084e-02	1.75922999e-10	2.41030510e-01
4.88933340e-01	1.19520001e-01	2.63671891e-03	8.80784296e-01	1.61720798e+05	3.00000000e+02	1.67762707e+03	8.51542747e+06	1.37949016e+00	1.73322232e-05	6.87529107e-02	1.85842032e-10	2.41112866e-01
4.87735883e-01	1.19520001e-01	2.63671891e-03	9.07564191e-01	1.66756824e+05	3.00000000e+02	1.69132659e+03	8.69489102e+06	1.40575758e+00	1.73353401e-05	6.83554884e-02	1.93352948e-10	2.41266350e-01
4.86541078e-01	1.19520001e-01	2.63671891e-03	9.41438490e-01	1.72797611e+05	3.00000000e+02	1.69546676e+03	8.89264583e+06	1.43282680e+00	1.73435223e-05	6.76305519e-02	1.98153498e-10	2.41473548e-01
4.85348895e-01	1.19520001e-01	2.63671891e-03	9.81301399e-01	1.79588727e+05	3.00000000e+02	1.69041722e+03	9.08211873e+06	1.45951337e+00	1.73572321e-05	6.66237333e-02	2.00804835e-10	2.41693109e-01
4.92541760e-01	1.19520001e-01	2.05078133e-03	7.38706541e-01	1.50576891e+05	3.00000000e+02	1.53239170e+03	7.78496909e+06	1.23305406e+00	1.69718481e-05	8.85719418e-02	2.47135287e-10	2.38151471e-01
4.91336287e-01	1.19520001e-01	2.05078133e-03	7.41469181e-01	1.52795299e+05	3.00000000e+02	1.54784607e+03	8.04128443e+06	1.24409090e+00	1.69374766e-05	8.98476177e-02	2.58461375e-10	2.38059716e-01
4.90133479e-01	1.19520001e-01	2.05078133e-03	7.52729181e-01	1.56174950e+05	3.00000000e+02	1.56512505e+03	8.24415890e+06	1.26158925e+00	1.69225694e-05	9.04328881e-02	2.72979117e-10	2.38001191e-01
4.88933340e-01	1.19520001e-01	2.05078133e-03	7.71482821e-01	1.60567177e+05	3.00000000e+02	1.58225841e+03	8.42012418e+06	1.28413392e+00	1.69231772e-05	9.04026758e-02	2.89531420e-10	2.38008979e-01
4.87735882e-01	1.19520001e-01	2.05078133e-03	7.97190541e-01	1.65877976e+05	3.00000000e+02	1.59499055e+03	8.57885006e+06	1.30976421e+00	1.69339156e-05	8.98941644e-02	3.04759185e-10	2.38131603e-01
4.86541078e-01	1.19520001e-01	2.05078133e-03	8.28430182e-01	1.72243403e+05	3.00000000e+02	1.60136311e+03	8.79182880e+06	1.33625463e+00	1.69540722e-05	8.89679690e-02	3.20326090e-10	2.38548321e-01
4.85348895e-01	1.19520001e-01	2.05078133e-03	8.65460465e-01	1.79236543e+05	3.00000000e+02	1.60252777e+03	8.97101997e+06	1.36441543e+00	1.69773601e-05	8.76667292e-02	3.36477476e-10	2.39039185e-01
4.92541760e-01	1.19520001e-01	1.46484381e-03	6.27836425e-01	1.48946346e+05	3.00000000e+02	1.38399491e+03	6.91208782e+06	1.11583358e+00	1.64316606e-05	1.18389310e-01	2.72156690e-10	2.31341959e-01
4.91336286e-01	1.19520001e-01	1.46484381e-03	6.31870559e-01	1.51106467e+05	3.00000000e+02	1.38943888e+03	7.15333680e+06	1.12359689e+00	1.64026358e-05	1.19546523e-01	2.72493177e-10	2.30781687e-01
4.90133480e-01	1.19520001e-01	1.46484381e-03	6.42399122e-01	1.54805296e+05	3.00000000e+02	1.39567982e+03	7.50055353e+06	1.13642329e+00	1.63887423e-05	1.20051309e-01	2.76502221e-10	2.30605213e-01
4.88933340e-01	1.19520001e-01	1.46484381e-03	6.59430318e-01	1.59538841e+05	3.00000000e+02	1.41473195e+03	7.72654748e+06	1.15915032e+00	1.63897437e-05	1.20025814e-01	2.93451689e-10	2.30597889e-01
4.87735882e-01	1.19520001e-01	1.46484381e-03	6.81118415e-01	1.65177479e+05	3.00000000e+02	1.43688550e+03	7.95436381e+06	1.18633692e+00	1.64022993e-05	1.19560764e-01	3.19761048e-10	2.30768261e-01
4.86541078e-01	1.19520001e-01	1.46484381e-03	7.07471769e-01	1.71738711e+05	3.00000000e+02	1.45709765e+03	8.15828749e+06	1.21584987e+00	1.64251490e-05	1.18691365e-01	3.54924201e-10	2.31180454e-01
4.85348896e-01	1.19520001e-01	1.46484381e-03	7.38180463e-01	1.78928073e+05	3.00000000e+02	1.47260548e+03	8.34208144e+06	1.24638865e+00	1.64536168e-05	1.17463653e-01	3.97902100e-10	2.31600862e-01
4.92541761e-01	1.19520001e-01	8.78906287e-04	5.40138529e-01	1.47664902e+05	3.00000000e+02	1.24414309e+03	5.60288370e+06	1.01136912e+00	1.59429411e-05	1.49358583e-01	1.61758184e-10	2.18880943e-01
4.91336287e-01	1.19520001e-01	8.78906287e-04	5.46554662e-01	1.50325785e+05	3.00000000e+02	1.27350447e+03	5.67310678e+06	1.03021527e+00	1.59286673e-05	1.50255379e-01	1.72945300e-10	2.17442024e-01
4.90133479e-01	1.19520001e-01	8.78906286e-04	5.57821421e-01	1.54197358e+05	3.00000000e+02	1.30052078e+03	5.77942620e+06	1.05236564e+00	1.59195199e-05	1.50824714e-01	1.89878467e-10	2.16076946e-01
4.88933340e-01	1.19520001e-01	8.78906287e-04	5.72657654e-01	1.59003588e+05	3.00000000e+02	1.32582649e+03	5.91583352e+06	1.07700263e+00	1.59134558e-05	1.51183359e-01	2.13906653e-10	2.14747601e-01
4.87735882e-01	1.19520001e-01	8.78906286e-04	5.91088417e-01	1.64743086e+05	3.00000000e+02	1.34920560e+03	6.06761829e+06	1.10396644e+00	1.59110853e-05	1.51341597e-01	2.45791254e-10	2.13459143e-01
4.86541078e-01	1.19520001e-01	8.78906286e-04	6.12691002e-01	1.71327768e+05	3.00000000e+02	1.36879143e+03	6.24949311e+06	1.13202409e+00	1.59119757e-05	1.51295705e-01	2.87553678e-10	2.12199606e-01
4.85348896e-01	1.19520001e-01	8.78906287e-04	6.36917087e-01	1.78544020e+05	3.00000000e+02	1.38372600e+03	6.43899152e+06	1.16010317e+00	1.59169654e-05	1.51034157e-01	3.41355392e-10	2.10964730e-01
4.92541761e-01	1.19520001e-01	2.92968761e-04	4.92405771e-01	1.47073105e+05	3.00000000e+02	1.18848671e+03	4.60412376e+06	9.70009152e-01	1.55121961e-05	1.72178283e-01	7.36679402e-11	1.81050505e-01
4.91336287e-01	1.19520001e-01	2.92968761e-04	4.98756232e-01	1.49853244e+05	3.00000000e+02	1.21879328e+03	4.64283132e+06	9.90123390e-01	1.54885320e-05	1.73272952e-01	8.22017315e-11	1.74988548e-01
4.90133479e-01	1.19520001e-01	2.92968761e-04	5.08914122e-01	1.53842124e+05	3.00000000e+02	1.24428095e+03	4.69336526e+06	1.01211080e+00	1.54647821e-05	1.74372533e-01	9.31814259e-11	1.68507109e-01
4.88933340e-01	1.19520001e-01	2.92968761e-04	5.21863199e-01	1.58717964e+05	3.00000000e+02	1.26802827e+03	4.74718424e+06	1.03625109e+00	1.54407428e-05	1.75505321e-01	1.07367585e-10	1.61499835e-01
4.87735883e-01	1.19520001e-01	2.92968761e-04	5.37520093e-01	1.64515060e+05	3.00000000e+02	1.28868609e+03	4.94932471e+06	1.06191018e+00	1.54160646e-05	1.76682771e-01	1.25166877e-10	1.53933802e-01
4.86541078e-01	1.19520001e-01	2.92968761e-04	5.54903292e-01	1.71112591e+05	3.00000000e+02	1.30462772e+03	5.05003220e+06	1.08738513e+00	1.53907203e-05	1.77917030e-01	1.47233148e-10	1.45773069e-01
4.85348896e-01	1.19520001e-01	2.92968761e-04	5.73927717e-01	1.78349166e+05	3.00000000e+02	1.31620073e+03	5.09386916e+06	1.11263120e+00	1.53648673e-05	1.79213902e-01	1.74988381e-10	1.36982475e-01
3.84001315e-01	1.19520001e-01	6.09375024e-03	1.38712477e+00	1.38228411e+05	3.00000000e+02	8.44964879e+02	2.13625370e+06	1.16939638e+00	1.82098234e-05	6.12462954e-77	-2.73463654e-95	-1.17592364e-74
3.84001314e-01	1.19520001e-01	5.15625020e-03	1.38712598e+00	1.38228520e+05	3.00000000e+02	8.44962258e+02	2.13625233e+06	1.16939507e+00	1.82098234e-05	1.31801528e-78	-3.79786471e-97	-2.52359957e-76
3.85455906e-01	1.19520001e-01	4.21875017e-03	1.51847420e+00	1.51378750e+05	3.00000000e+02	7.35317479e+02	2.14280168e+06	1.14136830e+00	1.82098234e-05	5.90377913e-77	-5.88876601e-96	-3.73416421e-75
3.88199389e-01	1.19520001e-01	1.40625005e-03	1.77717581e+00	1.80910270e+05	3.00000000e+02	7.87412825e+02	2.48486583e+06	1.27776530e+00	1.82098234e-05	5.13568355e-74	1.61064203e-94	4.46625600e-73
3.88199389e-01	1.19520001e-01	4.68750019e-04	1.77717951e+00	1.80910150e+05	3.00000000e+02	7.87400510e+02	2.48482029e+06	1.27775664e+00	1.82098234e-05	4.91401717e-74	2.08165071e-94	4.25510515e-73
3.96271244e-01	1.19520001e-01	8.90625036e-03	1.51306398e+00	1.53037732e+05	3.00000000e+02	1.07769848e+03	2.37883449e+06	1.37931015e+00	1.82098234e-05	5.12900306e-50	-1.06782955e-65	1.12335074e-49
3.95249277e-01	1.19520001e-01	8.90625035e-03	1.56123391e+00	1.59013501e+05	3.00000000e+02	1.10487932e+03	2.49375593e+06	1.41865261e+00	1.82098234e-05	1.51683437e-52	-2.60988217e-68	3.16653744e-52
3.94186422e-01	1.19520001e-01	8.90625036e-03	1.61634551e+00	1.65847409e+05	3.00000000e+02	1.12389110e+03	2.61659094e+06	1.45584074e+00	1.82098234e-05	4.43829967e-55	-6.04311103e-71	7.70706562e-55
3.93081054e-01	1.19520001e-01	8.90625035e-03	1.67593618e+00	1.73167676e+05	3.00000000e+02	1.12611153e+03	2.73367281e+06	1.48389815e+00	1.82098234e-05	1.25155221e-57	-1.26721131e-73	1.14138321e-57
3.91931475e-01	1.19520001e-01	8.90625036e-03	1.73413000e+00	1.80134359e+05	3.00000000e+02	1.10118030e+03	2.82320355e+06	1.49263869e+00	1.82098234e-05	3.34364646e-60	-2.29849589e-76	-3.63874828e-60
3.90735894e-01	1.19520001e-01	8.90625035e-03	1.77954304e+00	1.85275424e+05	3.00000000e+02	1.04279828e+03	2.86197595e+06	1.47142812e+00	1.82098234e-05	8.29219996e-63	-3.40472229e-79	-5.31127031e-62
3.89492497e-01	1.19520001e-01	8.90625035e-03	1.78888245e+00	1.86225336e+05	3.00000000e+02	9.62636174e+02	2.85993219e+06	1.41744639e+00	1.82098234e-05	1.86937602e-65	-3.93993971e-82	-4.04100629e-64
3.88199389e-01	1.19520001e-01	8.90625035e-03	1.77717951e+00	1.80910150e+05	3.00000000e+02	7.87400501e+02	2.48482028e+06	1.27775663e+00	1.82098234e-05	3.48011635e-68	-3.43649564e-85	-2.40867361e-66
3.86854545e-01	1.19520001e-01	8.90625036e-03	1.66375684e+00	1.67751236e+05	3.00000000e+02	7.24610403e+02	2.32723879e+06	1.18599228e+00	1.82098234e-05	5.10722245e-71	-1.32064785e-88	-7.87971707e-69
3.96271244e-01	1.19520001e-01	7.96875032e-03	1.51307976e+00	1.53037881e+05	3.00000000e+02	1.07763700e+03	2.37867903e+06	1.37927801e+00	1.82098234e-05	5.55612891e-49	-1.28088076e-64	1.29223286e-48
3.95249277e-01	1.19520001e-01	7.96875032e-03	1.56124782e+00	1.59013405e+05	3.00000000e+02	1.10482244e+03	2.49359843e+06	1.41862241e+00	1.82098234e-05	1.64959706e-51	-3.10315231e-67	3.49527587e-51
3.94186422e-01	1.19520001e-01	7.96875032e-03	1.61635548e+00	1.65846942e+05	3.00000000e+02	1.12384434e+03	2.61644094e+06	1.45581494e+00	1.82098234e-05	4.75229213e-54	-7.07403244e-70	8.16760287e-54
3.93081054e-01	1.19520001e-01	7.96875032e-03	1.67594162e+00	1.73166992e+05	3.00000000e+02	1.12608482e+03	2.73355184e+06	1.48388296e+00	1.82098234e-05	1.31215542e-56	-1.45839235e-72	1.12308000e-56
3.91931474e-01	1.19520001e-01	7.96875032e-03	1.73413110e+00	1.80133657e+05	3.00000000e+02	1.10117664e+03	2.82312689e+06	1.49263668e+00	1.82098234e-05	3.42740425e-59	-2.60170816e-75	-4.14502993e-59
3.90735895e-01	1.19520001e-01	7.96875032e-03	1.77954065e+00	1.85274924e+05	3.00000000e+02	1.04281286e+03	2.86195292e+06	1.47143743e+00	1.82098234e-05	8.31076247e-62	-3.79457275e-78	-5.55732933e-61
3.89492497e-01	1.19520001e-01	7.96875032e-03	1.78887790e+00	1.86225163e+05	3.00000000e+02	9.62656736e+02	2.85995957e+06	1.41745972e+00	1.82098234e-05	1.83298051e-64	-4.32907780e-81	-4.09781406e-63
3.88199389e-01	1.19520001e-01	7.96875032e-03	1.77717581e+00	1.80910271e+05	3.00000000e+02	7.87412792e+02	2.48486577e+06	1.27776528e+00	1.82098234e-05	3.34022015e-67	-3.72732545e-84	-2.38877039e-65
3.86854544e-01	1.19520001e-01	7.96875032e-03	1.66375547e+00	1.67751493e+05	3.00000000e+02	7.24609050e+02	2.32727747e+06	1.18599068e+00	1.82098234e-05	4.80049836e-70	-1.41523762e-87	-7.68584018e-68
3.96271244e-01	1.19520001e-01	7.03125028e-03	1.51309078e+00	1.53038371e+05	3.00000000e+02	1.07761453e+03	2.37861196e+06	1.37926864e+00	1.82098234e-05	1.64090232e-48	-3.98103159e-64	3.88028798e-48
3.95249278e-01	1.19520001e-01	7.03125028e-03	1.56125580e+00	1.59013327e+05	3.00000000e+02	1.10478532e+03	2.49350563e+06	1.41860221e+00	1.82098234e-05	4.98822226e-51	-9.72527235e-67	1.04716852e-50
3.94186422e-01	1.19520001e-01	7.03125028e-03	1.61635952e+00	1.65846465e+05	3.00000000e+02	1.12381359e+03	2.61635130e+06	1.45579684e+00	1.82098234e-05	1.44184212e-53	-2.21500724e-69	2.37304461e-53
3.93081054e-01	1.19520001e-01	7.03125028e-03	1.67594118e+00	1.73166197e+05	3.00000000e+02	1.12606728e+03	2.73347896e+06	1.48387120e+00	1.82098234e-05	3.96717989e-56	-4.54869391e-72	2.79676783e-56
3.91931475e-01	1.19520001e-01	7.03125028e-03	1.73412705e+00	1.80132755e+05	3.00000000e+02	1.10117499e+03	2.82308170e+06	1.49263382e+00	1.82098234e-05	1.02994742e-58	-8.07595913e-75	-1.57522697e-58
3.90735895e-01	1.19520001e-01	7.03125028e-03	1.77953452e+00	1.85274177e+05	3.00000000e+02	1.04282503e+03	2.86194298e+06	1.47144348e+00	1.82098234e-05	2.47960419e-61	-1.17222132e-77	-1.84647082e-60
3.89492497e-01	1.19520001e-01	7.03125028e-03	1.78887165e+00	1.86224792e+05	3.00000000e+02	9.62675739e+02	2.85998492e+06	1.41747124e+00	1.82098234e-05	5.42607811e-64	-1.33127583e-80	-1.32337943e-62
3.88199389e-01	1.19520001e-01	7.03125028e-03	1.77717236e+00	1.80910346e+05	3.00000000e+02	7.87427519e+02	2.48490479e+06	1.27777598e+00	1.82098234e-05	9.79540571e-67	-1.14143049e-83	-7.61608344e-65
3.86854545e-01	1.19520001e-01	7.03125028e-03	1.66375580e+00	1.67751876e+05	3.00000000e+02	7.24614025e+02	2.32731162e+06	1.18599487e+00	1.82098234e-05	1.39220222e-69	-4.31680301e-87	-2.43319746e-67
3.96271244e-01	1.19520001e-01	6.09375024e-03	1.51310293e+00	1.53039064e+05	3.00000000e+02	1.07757340e+03	2.37855438e+06	1.37924786e+00	1.82098234e-05	1.99075368e-50	-3.79549721e-66	4.61216694e-50
3.95249278e-01	1.19520001e-01	6.09375024e-03	1.56126055e+00	1.59013263e+05	3.00000000e+02	1.10475977e+03	2.49344856e+06	1.41858796e+00	1.82098234e-05	7.47393597e-53	-1.12139721e-68	1.51874310e-52
3.94186422e-01	1.19520001e-01	6.09375024e-03	1.61635985e+00	1.65845991e+05	3.00000000e+02	1.12379478e+03	2.61630007e+06	1.45578481e+00	1.82098234e-05	2.57472221e-55	-2.98550616e-71	3.95998904e-55
3.93081054e-01	1.19520001e-01	6.09375024e-03	1.67593784e+00	1.73165407e+05	3.00000000e+02	1.12605611e+03	2.73343578e+06	1.48386237e+00	1.82098234e-05	8.22766574e-58	-6.98652690e-74	4.17630320e-58
3.91931475e-01	1.19520001e-01	6.09375024e-03	1.73412085e+00	1.80131840e+05	3.00000000e+02	1.10117473e+03	2.82305628e+06	1.49263098e+00	1.82098234e-05	2.43087325e-60	-1.38518094e-76	-4.71065312e-60
3.90735894e-01	1.19520001e-01	6.09375024e-03	1.77952711e+00	1.85273387e+05	3.00000000e+02	1.04283539e+03	2.86194130e+06	1.47144772e+00	1.82098234e-05	6.54880343e-63	-2.20838117e-79	-5.49933391e-62
3.89492497e-01	1.19520001e-01	6.09375024e-03	1.78886512e+00	1.86224366e+05	3.00000000e+02	9.62692763e+02	2.86000804e+06	1.41748119e+00	1.82098234e-05	1.58057644e-65	-2.71853633e-82	-4.24247198e-64
3.88199389e-01	1.19520001e-01	6.09375024e-03	1.77716937e+00	1.80910399e+05	3.00000000e+02	7.87442430e+02	2.48493751e+06	1.27778701e+00	1.82098234e-05	3.10326680e-68	-2.49930931e-85	-2.62840156e-66
3.86854544e-01	1.19520001e-01	6.09375024e-03	1.66375698e+00	1.67752286e+05	3.00000000e+02	7.24621541e+02	2.32734011e+06	1.18600144e+00	1.82098234e-05	4.73975474e-71	-1.00559534e-88	-8.92972780e-69
3.85455907e-01	1.19520001e-01	6.09375024e-03	1.51847222e+00	1.51378506e+05	3.00000000e+02	7.35318129e+02	2.14279672e+06	1.14136806e+00	1.82098234e-05	5.72964802e-74	-4.74899601e-92	-1.37109273e-71
3.96271244e-01	1.19520001e-01	5.15625020e-03	1.51311391e+00	1.53039766e+05	3.00000000e+02	1.07752854e+03	2.37851041e+06	1.37922415e+00	1.82098234e-05	1.41843057e-52	-2.13113876e-68	3.21396446e-52
3.95249277e-01	1.19520001e-01	5.15625020e-03	1.56126309e+00	1.59013237e+05	3.00000000e+02	1.10474572e+03	2.49341893e+06	1.41858009e+00	1.82098234e-05	6.42746430e-55	-7.43356704e-71	1.26552704e-54
3.94186422e-01	1.19520001e-01	5.15625020e-03	1.61635930e+00	1.65845712e+05	3.00000000e+02	1.12378648e+03	2.61627770e+06	1.45577919e+00	1.82098234e-05	2.59490555e-57	-2.27268517e-73	3.73040229e-57
3.93081054e-01	1.19520001e-01	5.15625020e-03	1.67593531e+00	1.73164930e+05	3.00000000e+02	1.12605041e+03	2.73341483e+06	1.48385749e+00	1.82098234e-05	9.50846109e-60	-5.97970860e-76	3.05094946e-60
3.91931474e-01	1.19520001e-01	5.15625020e-03	1.73411667e+00	1.80131276e+05	3.00000000e+02	1.10117460e+03	2.82304407e+06	1.49262908e+00	1.82098234e-05	3.16556545e-62	-1.31020387e-78	-7.37672048e-62
3.90735895e-01	1.19520001e-01	5.15625020e-03	1.77952226e+00	1.85272884e+05	3.00000000e+02	1.04284128e+03	2.86194151e+06	1.47144987e+00	1.82098234e-05	9.46822702e-65	-2.27550901e-81	-8.83383323e-64
3.89492497e-01	1.19520001e-01	5.15625020e-03	1.78886095e+00	1.86224081e+05	3.00000000e+02	9.62702906e+02	2.86002164e+06	1.41748700e+00	1.82098234e-05	2.50382317e-67	-3.01588898e-84	-7.33149889e-66
3.88199389e-01	1.19520001e-01	5.15625020e-03	1.77716754e+00	1.80910420e+05	3.00000000e+02	7.87451759e+02	2.48495642e+06	1.27779392e+00	1.82098234e-05	5.31742761e-70	-2.95656480e-87	-4.87196103e-68