VARIABLES ="X" "Y" "Z" "rho" "press" "temp" "tau_wall" "qdot" "yplus" "muLam" "ZMean" "ZVar" "CMean" 
Zone T ="wall" I = 7342 , F = point
4.84159381e-01	1.19520001e-01	8.49609403e-03	1.52958477e+00	1.81343956e+05	3.00000000e+02	1.99900728e+03	5.18467084e+06	1.89207579e+00	1.81779882e-05	8.34971614e-04	2.03964487e-13	8.10342966e-03
4.84159381e-01	1.19520001e-01	7.91015662e-03	1.51345282e+00	1.81591492e+05	3.00000000e+02	1.93089770e+03	5.38941410e+06	1.85608693e+00	1.81157428e-05	2.14296094e-03	9.45186803e-13	1.92267950e-02
4.84159381e-01	1.19520001e-01	7.32421899e-03	1.49974503e+00	1.82180021e+05	3.00000000e+02	1.84894491e+03	5.55621018e+06	1.81477267e+00	1.80484062e-05	4.42941299e-03	2.75015690e-12	3.80966695e-02
4.84159381e-01	1.19520001e-01	6.73828157e-03	1.47384553e+00	1.82946098e+05	3.00000000e+02	1.74959050e+03	5.88570047e+06	1.75551849e+00	1.79919886e-05	7.56680331e-03	5.52608424e-12	6.31252155e-02
4.84159380e-01	1.19520001e-01	6.15234417e-03	1.44141452e+00	1.83807432e+05	3.00000000e+02	1.69708002e+03	6.31744888e+06	1.71266539e+00	1.79623630e-05	1.11514627e-02	8.59786408e-12	9.07025447e-02
4.84159380e-01	1.19520001e-01	5.56640653e-03	1.40456092e+00	1.84729454e+05	3.00000000e+02	1.70035997e+03	6.86080902e+06	1.69351542e+00	1.79490702e-05	1.48146206e-02	1.17536127e-11	1.17398151e-01
4.84159380e-01	1.19520001e-01	4.98046889e-03	1.36489484e+00	1.85700364e+05	3.00000000e+02	1.74777373e+03	7.51427704e+06	1.69328943e+00	1.79411959e-05	1.85411319e-02	1.64657572e-11	1.42920083e-01
4.84159381e-01	1.19520001e-01	9.08203143e-03	1.53669671e+00	1.81441786e+05	3.00000000e+02	2.01646165e+03	5.12872777e+06	1.90227876e+00	1.82014208e-05	3.09148015e-04	3.03199466e-14	3.57503767e-03
4.82972532e-01	1.19520001e-01	9.08203144e-03	1.48571189e+00	1.75312965e+05	3.00000000e+02	2.06127594e+03	5.11628507e+06	1.89085975e+00	1.82039835e-05	2.87142523e-04	2.70026937e-14	3.33509201e-03
4.81788292e-01	1.19520001e-01	9.08203144e-03	1.43858034e+00	1.69768613e+05	3.00000000e+02	2.11996400e+03	5.11808958e+06	1.88671182e+00	1.82060662e-05	2.68094607e-04	2.60342933e-14	3.11617390e-03
4.80606675e-01	1.19520001e-01	9.08203144e-03	1.40812027e+00	1.66379763e+05	3.00000000e+02	2.17562399e+03	5.14215195e+06	1.89080676e+00	1.82076977e-05	2.52325414e-04	2.67681039e-14	2.92457257e-03
4.79427695e-01	1.19520001e-01	9.08203144e-03	1.39559522e+00	1.65272913e+05	3.00000000e+02	2.21962010e+03	5.18627125e+06	1.90117802e+00	1.82090238e-05	2.38838485e-04	2.85694547e-14	2.75187985e-03
4.78251323e-01	1.19520001e-01	9.08203144e-03	1.39718372e+00	1.65965008e+05	3.00000000e+02	2.25183228e+03	5.24583908e+06	1.91589246e+00	1.82101715e-05	2.26638779e-04	3.11604993e-14	2.58675069e-03
4.82972532e-01	1.19520001e-01	8.49609403e-03	1.49165620e+00	1.76767257e+05	3.00000000e+02	2.04591301e+03	5.17690460e+06	1.88952095e+00	1.81851390e-05	7.39024498e-04	1.70183754e-13	7.28267233e-03
4.81788292e-01	1.19520001e-01	8.49609403e-03	1.45236589e+00	1.72118522e+05	3.00000000e+02	2.10233454e+03	5.18446535e+06	1.88978772e+00	1.81872190e-05	6.59003695e-04	1.50525529e-13	6.58366874e-03
4.80606675e-01	1.19520001e-01	8.49609403e-03	1.42247976e+00	1.68806718e+05	3.00000000e+02	2.15500954e+03	5.21675949e+06	1.89352028e+00	1.81872933e-05	6.02608974e-04	1.43118389e-13	6.04639600e-03
4.79427695e-01	1.19520001e-01	8.49609403e-03	1.40687256e+00	1.67360566e+05	3.00000000e+02	2.19874549e+03	5.26848595e+06	1.90218687e+00	1.81866230e-05	5.65926861e-04	1.46264720e-13	5.67705953e-03
4.78251323e-01	1.19520001e-01	8.49609403e-03	1.40460416e+00	1.67583250e+05	3.00000000e+02	2.23105797e+03	5.32917918e+06	1.91464476e+00	1.81858908e-05	5.42706303e-04	1.57426709e-13	5.43086560e-03
4.82972532e-01	1.19520001e-01	7.91015662e-03	1.49837345e+00	1.78967467e+05	3.00000000e+02	1.98110704e+03	5.30850410e+06	1.86977109e+00	1.81244964e-05	1.87819447e-03	8.00904774e-13	1.69489709e-02
4.81788292e-01	1.19520001e-01	7.91015663e-03	1.46764835e+00	1.75204203e+05	3.00000000e+02	2.02694089e+03	5.28706315e+06	1.86931316e+00	1.81484638e-05	1.65335829e-03	6.84162388e-13	1.49953901e-02
4.80606676e-01	1.19520001e-01	7.91015663e-03	1.44256437e+00	1.72110693e+05	3.00000000e+02	2.07340884e+03	5.29557905e+06	1.87472233e+00	1.81452730e-05	1.48793531e-03	6.20117584e-13	1.35564483e-02
4.79427695e-01	1.19520001e-01	7.91015663e-03	1.42362301e+00	1.70578830e+05	3.00000000e+02	2.11574876e+03	5.40371839e+06	1.88243262e+00	1.81342873e-05	1.38231195e-03	6.11735907e-13	1.25513850e-02
4.78251323e-01	1.19520001e-01	7.91015663e-03	1.41488173e+00	1.70042044e+05	3.00000000e+02	2.14905398e+03	5.46059781e+06	1.89078546e+00	1.81397736e-05	1.32892144e-03	6.54241462e-13	1.21206511e-02
4.82972532e-01	1.19520001e-01	7.32421899e-03	1.49317296e+00	1.81237058e+05	3.00000000e+02	1.89348357e+03	5.55618701e+06	1.83104473e+00	1.80624750e-05	3.94596046e-03	2.43289271e-12	3.41193037e-02
4.81788293e-01	1.19520001e-01	7.32421899e-03	1.47484037e+00	1.79318813e+05	3.00000000e+02	1.92265805e+03	5.60603990e+06	1.83244795e+00	1.80751650e-05	3.51929103e-03	2.09027159e-12	3.05638736e-02
4.80606676e-01	1.19520001e-01	7.32421899e-03	1.46313362e+00	1.77377245e+05	3.00000000e+02	1.95517439e+03	5.57332643e+06	1.84045779e+00	1.80758724e-05	3.18049074e-03	1.85587157e-12	2.77227950e-02
4.79427695e-01	1.19520001e-01	7.32421898e-03	1.44557167e+00	1.74946155e+05	3.00000000e+02	2.00081734e+03	5.52950104e+06	1.84888528e+00	1.80927239e-05	2.95646676e-03	1.85267555e-12	2.59519609e-02
4.78251323e-01	1.19520001e-01	7.32421899e-03	1.43011032e+00	1.73583331e+05	3.00000000e+02	2.03557378e+03	5.60656103e+06	1.85542541e+00	1.80873557e-05	2.84564409e-03	1.95760553e-12	2.49543021e-02
4.82972532e-01	1.19520001e-01	6.73828158e-03	1.48127216e+00	1.83498567e+05	3.00000000e+02	1.77397244e+03	5.87211896e+06	1.77122071e+00	1.80014947e-05	6.90618744e-03	5.01690931e-12	5.78238287e-02
4.81788293e-01	1.19520001e-01	6.73828158e-03	1.48309127e+00	1.83386749e+05	3.00000000e+02	1.80516044e+03	5.85527320e+06	1.78655762e+00	1.80142091e-05	6.28714091e-03	4.55161531e-12	5.28568750e-02
4.80606676e-01	1.19520001e-01	6.73828158e-03	1.47565583e+00	1.82428049e+05	3.00000000e+02	1.84036176e+03	5.86982375e+06	1.79836467e+00	1.80242317e-05	5.77051280e-03	4.27759988e-12	4.86989688e-02
4.79427695e-01	1.19520001e-01	6.73828157e-03	1.45939345e+00	1.80546676e+05	3.00000000e+02	1.87075325e+03	5.90247719e+06	1.80253546e+00	1.80302197e-05	5.40982390e-03	4.17936944e-12	4.57414359e-02
4.78251323e-01	1.19520001e-01	6.73828158e-03	1.44326327e+00	1.78495364e+05	3.00000000e+02	1.90178273e+03	5.90639389e+06	1.80731264e+00	1.80306062e-05	5.21740572e-03	4.39132537e-12	4.41958851e-02
4.77077573e-01	1.19520001e-01	6.73828158e-03	1.43229047e+00	1.77606557e+05	3.00000000e+02	1.92816345e+03	5.96183845e+06	1.81270261e+00	1.80323072e-05	5.19705696e-03	5.02569727e-12	4.39542935e-02
4.82972532e-01	1.19520001e-01	6.15234417e-03	1.46068126e+00	1.85766951e+05	3.00000000e+02	1.69611774e+03	6.29092581e+06	1.72292572e+00	1.79692337e-05	1.04392560e-02	8.17629108e-12	8.52257286e-02
4.81788292e-01	1.19520001e-01	6.15234417e-03	1.47452238e+00	1.87058429e+05	3.00000000e+02	1.69662333e+03	6.26720456e+06	1.73079122e+00	1.79748015e-05	9.73193985e-03	7.64819740e-12	7.97493353e-02
4.80606675e-01	1.19520001e-01	6.15234417e-03	1.47916822e+00	1.87230967e+05	3.00000000e+02	1.70337453e+03	6.24401163e+06	1.73613112e+00	1.79833966e-05	9.10275143e-03	7.17770178e-12	7.47854652e-02
4.79427695e-01	1.19520001e-01	6.15234417e-03	1.47166707e+00	1.86172539e+05	3.00000000e+02	1.72233381e+03	6.25089577e+06	1.74078729e+00	1.79890458e-05	8.62363389e-03	7.07922888e-12	7.09912856e-02
4.78251323e-01	1.19520001e-01	6.15234417e-03	1.45474497e+00	1.84169189e+05	3.00000000e+02	1.74874762e+03	6.27916138e+06	1.74373503e+00	1.79914801e-05	8.35309367e-03	7.43038221e-12	6.88252459e-02
4.77077573e-01	1.19520001e-01	6.15234417e-03	1.43685500e+00	1.82267330e+05	3.00000000e+02	1.77116178e+03	6.32296811e+06	1.74387113e+00	1.79933316e-05	8.32874062e-03	8.30896923e-12	6.85452668e-02
4.82972533e-01	1.19520001e-01	5.56640653e-03	1.43271255e+00	1.87877297e+05	3.00000000e+02	1.67476570e+03	6.82569343e+06	1.69718246e+00	1.79522303e-05	1.41410004e-02	1.13941081e-11	1.12514198e-01
4.81788292e-01	1.19520001e-01	5.56640653e-03	1.45582419e+00	1.90362809e+05	3.00000000e+02	1.65175583e+03	6.79332667e+06	1.69876500e+00	1.79549611e-05	1.34440544e-02	1.09369272e-11	1.07416710e-01
4.80606675e-01	1.19520001e-01	5.56640653e-03	1.47010951e+00	1.91729417e+05	3.00000000e+02	1.63431655e+03	6.76327668e+06	1.69766214e+00	1.79589960e-05	1.27941904e-02	1.04726618e-11	1.02582949e-01
4.79427695e-01	1.19520001e-01	5.56640653e-03	1.47268991e+00	1.91713204e+05	3.00000000e+02	1.62463499e+03	6.74448806e+06	1.69370964e+00	1.79632528e-05	1.22696960e-02	1.01814888e-11	9.86161944e-02
4.78251323e-01	1.19520001e-01	5.56640653e-03	1.46214236e+00	1.90202158e+05	3.00000000e+02	1.62452383e+03	6.74054249e+06	1.68737245e+00	1.79654171e-05	1.19536674e-02	1.02836985e-11	9.61734191e-02
4.77077573e-01	1.19520001e-01	5.56640653e-03	1.44128028e+00	1.87755226e+05	3.00000000e+02	1.63535658e+03	6.77372555e+06	1.68069624e+00	1.79672500e-05	1.19183400e-02	1.10608220e-11	9.57893628e-02
4.82972532e-01	1.19520001e-01	4.98046889e-03	1.39970931e+00	1.89860364e+05	3.00000000e+02	1.70419618e+03	7.47354600e+06	1.69304378e+00	1.79432421e-05	1.78944874e-02	1.57654056e-11	1.38532668e-01
4.81788292e-01	1.19520001e-01	4.98046889e-03	1.43047446e+00	1.93380895e+05	3.00000000e+02	1.65979176e+03	7.42468444e+06	1.68883662e+00	1.79460801e-05	1.72166167e-02	1.49556746e-11	1.33836877e-01
4.80606675e-01	1.19520001e-01	4.98046889e-03	1.45335491e+00	1.95891921e+05	3.00000000e+02	1.61942788e+03	7.38333793e+06	1.68125571e+00	1.79482975e-05	1.65677031e-02	1.42068810e-11	1.29286322e-01
4.79427695e-01	1.19520001e-01	4.98046889e-03	1.46482272e+00	1.97031118e+05	3.00000000e+02	1.58653573e+03	7.35902539e+06	1.67042301e+00	1.79506998e-05	1.60253283e-02	1.36927179e-11	1.25420726e-01
4.78251323e-01	1.19520001e-01	4.98046889e-03	1.46121504e+00	1.96359356e+05	3.00000000e+02	1.56314232e+03	7.35182219e+06	1.65584300e+00	1.79526083e-05	1.56808577e-02	1.35430030e-11	1.22905428e-01
4.77077573e-01	1.19520001e-01	4.98046889e-03	1.44232445e+00	1.93888629e+05	3.00000000e+02	1.55146918e+03	7.36084771e+06	1.63880288e+00	1.79542276e-05	1.56248236e-02	1.39283456e-11	1.22372407e-01
4.82972532e-01	1.19520001e-01	4.39453149e-03	1.36072536e+00	1.91723410e+05	3.00000000e+02	1.75691630e+03	8.24866618e+06	1.69570107e+00	1.79350201e-05	2.20466383e-02	2.46760172e-11	1.64674615e-01
4.81788293e-01	1.19520001e-01	4.39453149e-03	1.39823605e+00	1.96226314e+05	3.00000000e+02	1.70102468e+03	8.18720346e+06	1.69108193e+00	1.79378873e-05	2.12914098e-02	2.27023050e-11	1.60006933e-01
4.80606676e-01	1.19520001e-01	4.39453149e-03	1.42942052e+00	1.99848349e+05	3.00000000e+02	1.64416599e+03	8.12658698e+06	1.68072726e+00	1.79409724e-05	2.05634412e-02	2.09012113e-11	1.55319983e-01
4.79427695e-01	1.19520001e-01	4.39453148e-03	1.45020955e+00	2.02142350e+05	3.00000000e+02	1.58913115e+03	8.07852184e+06	1.66401246e+00	1.79444050e-05	1.99431967e-02	1.94779434e-11	1.51174962e-01
4.78251323e-01	1.19520001e-01	4.39453149e-03	1.45572823e+00	2.02498146e+05	3.00000000e+02	1.53976065e+03	8.04319716e+06	1.64082422e+00	1.79471332e-05	1.95263398e-02	1.85446127e-11	1.48282604e-01
4.77077573e-01	1.19520001e-01	4.39453149e-03	1.44240730e+00	2.00479173e+05	3.00000000e+02	1.50189672e+03	8.02103915e+06	1.61293931e+00	1.79488384e-05	1.94129629e-02	1.82529828e-11	1.47325290e-01
4.82972533e-01	1.19520001e-01	3.80859396e-03	1.31291072e+00	1.93440002e+05	3.00000000e+02	1.78713547e+03	9.14440105e+06	1.68178510e+00	1.79149755e-05	2.74166029e-02	4.63112718e-11	1.92725258e-01
4.81788293e-01	1.19520001e-01	3.80859396e-03	1.35635775e+00	1.98882945e+05	3.00000000e+02	1.73150252e+03	9.09332635e+06	1.68209284e+00	1.79200457e-05	2.64166621e-02	4.14334953e-11	1.88095382e-01
4.80606676e-01	1.19520001e-01	3.80859396e-03	1.39564506e+00	2.03571218e+05	3.00000000e+02	1.66737704e+03	9.01420971e+06	1.67387300e+00	1.79255414e-05	2.54440174e-02	3.65567923e-11	1.83089750e-01
4.79427695e-01	1.19520001e-01	3.80859396e-03	1.42586384e+00	2.07003138e+05	3.00000000e+02	1.59893275e+03	8.93353402e+06	1.65629661e+00	1.79310779e-05	2.45905366e-02	3.23924773e-11	1.78272964e-01
4.78251323e-01	1.19520001e-01	3.80859396e-03	1.44149632e+00	2.08488410e+05	3.00000000e+02	1.52920692e+03	8.85792158e+06	1.62819601e+00	1.79359174e-05	2.39680497e-02	2.92685222e-11	1.74453967e-01
4.77077573e-01	1.19520001e-01	3.80859396e-03	1.43678871e+00	2.07211013e+05	3.00000000e+02	1.46411517e+03	8.78010806e+06	1.59024421e+00	1.79395124e-05	2.36990512e-02	2.71724999e-11	1.72527643e-01
4.82972532e-01	1.19520001e-01	3.22265643e-03	1.24807133e+00	1.94908090e+05	3.00000000e+02	1.74900003e+03	1.00917035e+07	1.62803059e+00	1.78501732e-05	3.53293093e-02	1.05855270e-10	2.19657584e-01
4.81788293e-01	1.19520001e-01	3.22265643e-03	1.29756048e+00	2.01237000e+05	3.00000000e+02	1.69809922e+03	1.00841759e+07	1.63444345e+00	1.78634699e-05	3.38721098e-02	9.35507560e-11	2.16224376e-01
4.80606675e-01	1.19520001e-01	3.22265643e-03	1.34501747e+00	2.06943147e+05	3.00000000e+02	1.63471759e+03	1.00199945e+07	1.63150720e+00	1.78766740e-05	3.24206482e-02	8.01272665e-11	2.12134236e-01
4.79427695e-01	1.19520001e-01	3.22265643e-03	1.38573456e+00	2.11461915e+05	3.00000000e+02	1.55923182e+03	9.90569844e+06	1.61625042e+00	1.78886308e-05	3.11015660e-02	6.73779280e-11	2.07679098e-01
4.78251323e-01	1.19520001e-01	3.22265643e-03	1.41407595e+00	2.14062948e+05	3.00000000e+02	1.47167235e+03	9.74675204e+06	1.58526595e+00	1.78990585e-05	3.00609578e-02	5.63853138e-11	2.03470669e-01
4.77077573e-01	1.19520001e-01	3.22265643e-03	1.42164735e+00	2.13606690e+05	3.00000000e+02	1.37824591e+03	9.54386890e+06	1.53757223e+00	1.79066421e-05	2.94556656e-02	4.77267131e-11	2.00476368e-01
4.82972533e-01	1.19520001e-01	2.63671891e-03	1.15698149e+00	1.96099256e+05	3.00000000e+02	1.63557920e+03	1.07595111e+07	1.53024976e+00	1.76818238e-05	4.77447395e-02	2.72636582e-10	2.37120569e-01
4.81788293e-01	1.19520001e-01	2.63671891e-03	1.21125503e+00	2.03175343e+05	3.00000000e+02	1.57852168e+03	1.08508390e+07	1.53569645e+00	1.77103881e-05	4.56392412e-02	2.48671251e-10	2.35860995e-01
4.80606676e-01	1.19520001e-01	2.63671891e-03	1.26635862e+00	2.09769145e+05	3.00000000e+02	1.50479671e+03	1.08545805e+07	1.53071574e+00	1.77383454e-05	4.34421100e-02	2.14527323e-10	2.34199472e-01
4.79427695e-01	1.19520001e-01	2.63671891e-03	1.31907235e+00	2.15229043e+05	3.00000000e+02	1.41119998e+03	1.07145209e+07	1.51062914e+00	1.77648324e-05	4.13389386e-02	1.74085267e-10	2.32113961e-01
4.78251323e-01	1.19520001e-01	2.63671891e-03	1.36469225e+00	2.18811994e+05	3.00000000e+02	1.29792733e+03	1.03934933e+07	1.47171668e+00	1.77872466e-05	3.95563721e-02	1.32803771e-10	2.29804858e-01
4.77077573e-01	1.19520001e-01	2.63671891e-03	1.38474511e+00	2.19142572e+05	3.00000000e+02	1.19212836e+03	1.01217456e+07	1.41943238e+00	1.78041853e-05	3.83083945e-02	1.04325826e-10	2.27606445e-01
4.82972532e-01	1.19520001e-01	2.05078133e-03	1.03762829e+00	1.96717170e+05	3.00000000e+02	1.48809576e+03	1.06149026e+07	1.40840292e+00	1.73540086e-05	6.71206301e-02	6.22476077e-10	2.41454413e-01
4.81788293e-01	1.19520001e-01	2.05078133e-03	1.09068351e+00	2.04279298e+05	3.00000000e+02	1.41948996e+03	1.08425194e+07	1.40661284e+00	1.73992827e-05	6.43935847e-02	6.22594114e-10	2.41640433e-01
4.80606675e-01	1.19520001e-01	2.05078133e-03	1.14731873e+00	2.11492162e+05	3.00000000e+02	1.33095586e+03	1.09745327e+07	1.39295728e+00	1.74492375e-05	6.13602628e-02	5.93866756e-10	2.41719990e-01
4.79427695e-01	1.19520001e-01	2.05078133e-03	1.20292860e+00	2.17598972e+05	3.00000000e+02	1.22030504e+03	1.10062193e+07	1.36185158e+00	1.74990606e-05	5.81995069e-02	5.25358259e-10	2.41668500e-01
4.78251323e-01	1.19520001e-01	2.05078133e-03	1.25269003e+00	2.21879453e+05	3.00000000e+02	1.08681726e+03	1.08760241e+07	1.30808529e+00	1.75450414e-05	5.52333811e-02	4.24507837e-10	2.41412022e-01
4.77077574e-01	1.19520001e-01	2.05078133e-03	1.28717930e+00	2.22869796e+05	3.00000000e+02	9.39731253e+02	1.05084329e+07	1.23032778e+00	1.75829165e-05	5.28300026e-02	3.14448984e-10	2.40935525e-01
4.82972533e-01	1.19520001e-01	1.46484381e-03	8.94666075e-01	1.97083490e+05	3.00000000e+02	1.35033179e+03	9.91322006e+06	1.28358744e+00	1.68428529e-05	9.51744850e-02	9.14742417e-10	2.37296981e-01
4.81788293e-01	1.19520001e-01	1.46484381e-03	9.38534988e-01	2.05125059e+05	3.00000000e+02	1.28538816e+03	1.04799155e+07	1.27988268e+00	1.68796176e-05	9.23614622e-02	1.01796594e-09	2.37714942e-01
4.80606675e-01	1.19520001e-01	1.46484381e-03	9.89731610e-01	2.12754251e+05	3.00000000e+02	1.20036924e+03	1.04935147e+07	1.26398060e+00	1.69615730e-05	8.90131689e-02	1.13138191e-09	2.38062904e-01
4.79427695e-01	1.19520001e-01	1.46484381e-03	1.03980561e+00	2.19141117e+05	3.00000000e+02	1.08753353e+03	1.05021906e+07	1.22764511e+00	1.70378564e-05	8.52148238e-02	1.17196961e-09	2.38970850e-01
4.78251323e-01	1.19520001e-01	1.46484381e-03	1.08567619e+00	2.23777466e+05	3.00000000e+02	9.45567129e+02	1.07255113e+07	1.16611323e+00	1.70901550e-05	8.11465754e-02	1.07623730e-09	2.39931682e-01
4.77077573e-01	1.19520001e-01	1.46484381e-03	1.12431507e+00	2.25119724e+05	3.00000000e+02	7.80068219e+02	1.03758074e+07	1.07263537e+00	1.71730953e-05	7.71548534e-02	8.87315727e-10	2.40367208e-01
4.82972532e-01	1.19520001e-01	8.78906286e-04	7.59227274e-01	1.97597965e+05	3.00000000e+02	1.25551033e+03	8.38144803e+06	1.17439428e+00	1.63520612e-05	1.28162565e-01	7.90425436e-10	2.23081202e-01
4.81788293e-01	1.19520001e-01	8.78906287e-04	7.93116768e-01	2.05905845e+05	3.00000000e+02	1.21359300e+03	8.61229149e+06	1.17812776e+00	1.63795925e-05	1.26776887e-01	1.00058121e-09	2.23155178e-01
4.80606675e-01	1.19520001e-01	8.78906286e-04	8.29030525e-01	2.13985128e+05	3.00000000e+02	1.14884018e+03	8.79822144e+06	1.16930083e+00	1.64164481e-05	1.24882559e-01	1.24299677e-09	2.23486837e-01
4.79427695e-01	1.19520001e-01	8.78906286e-04	8.64966617e-01	2.21001628e+05	3.00000000e+02	1.06305440e+03	8.93491221e+06	1.14541652e+00	1.64666160e-05	1.22292892e-01	1.48185544e-09	2.24145946e-01
4.78251323e-01	1.19520001e-01	8.78906286e-04	8.99788528e-01	2.26217441e+05	3.00000000e+02	9.54001717e+02	8.95892254e+06	1.10225678e+00	1.65330283e-05	1.18894378e-01	1.64364535e-09	2.25132769e-01
4.77077574e-01	1.19520001e-01	8.78906286e-04	9.27385071e-01	2.28080448e+05	3.00000000e+02	8.26902817e+02	8.79768590e+06	1.03691370e+00	1.66113549e-05	1.14936489e-01	1.65540020e-09	2.25873284e-01
4.82972533e-01	1.19520001e-01	2.92968761e-04	6.90282724e-01	1.97742778e+05	3.00000000e+02	1.24051449e+03	6.02080702e+06	1.15206819e+00	1.57988918e-05	1.54934663e-01	3.65247126e-10	1.45496523e-01
4.81788293e-01	1.19520001e-01	2.92968761e-04	7.14725176e-01	2.06135089e+05	3.00000000e+02	1.20297146e+03	6.18825939e+06	1.15676504e+00	1.57667591e-05	1.56362432e-01	4.53607418e-10	1.32922232e-01
4.80606676e-01	1.19520001e-01	2.92968761e-04	7.37146311e-01	2.14306666e+05	3.00000000e+02	1.14402297e+03	6.10225128e+06	1.14795307e+00	1.57347726e-05	1.57899274e-01	5.51933692e-10	1.19706455e-01
4.79427695e-01	1.19520001e-01	2.92968761e-04	7.56700550e-01	2.21541327e+05	3.00000000e+02	1.06625778e+03	5.93165958e+06	1.12499938e+00	1.57047574e-05	1.59521006e-01	6.55563456e-10	1.05973247e-01
4.78251323e-01	1.19520001e-01	2.92968761e-04	7.71354021e-01	2.27076898e+05	3.00000000e+02	9.68732845e+02	5.68754325e+06	1.08450549e+00	1.56778865e-05	1.61194508e-01	7.40277694e-10	9.19181623e-02
4.77077573e-01	1.19520001e-01	2.92968761e-04	7.76558068e-01	2.29396314e+05	3.00000000e+02	8.55193656e+02	5.33513610e+06	1.02386255e+00	1.56555356e-05	1.62897212e-01	7.65040701e-10	7.76195228e-02
4.77077574e-01	1.19520001e-01	9.08203144e-03	1.40970596e+00	1.68063542e+05	3.00000000e+02	2.27408056e+03	5.31789759e+06	1.93387461e+00	1.82108100e-05	2.15044257e-04	3.44419104e-14	2.42042041e-03
4.75906431e-01	1.19520001e-01	9.08203144e-03	1.42993657e+00	1.71201142e+05	3.00000000e+02	2.28606125e+03	5.40297665e+06	1.95283741e+00	1.82106990e-05	2.03474313e-04	3.84965645e-14	2.25085451e-03
4.74737868e-01	1.19520001e-01	9.08203144e-03	1.45386595e+00	1.74833650e+05	3.00000000e+02	2.28694707e+03	5.49141097e+06	1.96950240e+00	1.82105938e-05	1.91509163e-04	4.33815704e-14	2.08278850e-03
4.73571912e-01	1.19520001e-01	9.08203143e-03	1.47638430e+00	1.78188727e+05	3.00000000e+02	2.27360771e+03	5.56504973e+06	1.97891051e+00	1.82104931e-05	1.78959457e-04	4.85681541e-14	1.91324728e-03
4.72408548e-01	1.19520001e-01	9.08203144e-03	1.49304576e+00	1.80484463e+05	3.00000000e+02	2.23991162e+03	5.59777254e+06	1.97525399e+00	1.82103980e-05	1.65927736e-04	5.27236074e-14	1.74408815e-03
4.71247747e-01	1.19520001e-01	9.08203144e-03	1.49904949e+00	1.80790196e+05	3.00000000e+02	2.17831274e+03	5.55266220e+06	1.95182609e+00	1.82103112e-05	1.52779801e-04	5.36130794e-14	1.57926661e-03
4.70089525e-01	1.19520001e-01	9.08203144e-03	1.48821041e+00	1.78127253e+05	3.00000000e+02	2.09377360e+03	5.40340339e+06	1.90665397e+00	1.82102342e-05	1.39877718e-04	4.93793547e-14	1.42280063e-03
4.77077574e-01	1.19520001e-01	8.49609403e-03	1.41329717e+00	1.69229472e+05	3.00000000e+02	2.25331784e+03	5.40225036e+06	1.93017946e+00	1.81853083e-05	5.27985351e-04	1.75541543e-13	5.26190660e-03
4.75906432e-01	1.19520001e-01	8.49609403e-03	1.43122933e+00	1.72078449e+05	3.00000000e+02	2.26386645e+03	5.48460353e+06	1.94697438e+00	1.81848684e-05	5.18195191e-04	2.00373750e-13	5.14110357e-03
4.74737868e-01	1.19520001e-01	8.49609403e-03	1.45461523e+00	1.75621029e+05	3.00000000e+02	2.26021511e+03	5.56869619e+06	1.96127178e+00	1.81845081e-05	5.10850416e-04	2.32083253e-13	5.04569674e-03
4.73571911e-01	1.19520001e-01	8.49609403e-03	1.47868044e+00	1.79105197e+05	3.00000000e+02	2.23593429e+03	5.63421557e+06	1.96681163e+00	1.81842042e-05	5.05073157e-04	2.68390877e-13	4.96847023e-03
4.72408548e-01	1.19520001e-01	8.49609403e-03	1.49399951e+00	1.81071397e+05	3.00000000e+02	2.19130833e+03	5.64655482e+06	1.95712075e+00	1.81844318e-05	5.01246126e-04	3.02716687e-13	4.91540578e-03
4.71247748e-01	1.19520001e-01	8.49609403e-03	1.49808778e+00	1.80917591e+05	3.00000000e+02	2.11753034e+03	5.57459828e+06	1.92651291e+00	1.81845230e-05	5.02430058e-04	3.22407157e-13	4.91456649e-03
4.70089525e-01	1.19520001e-01	8.49609403e-03	1.48144441e+00	1.77268853e+05	3.00000000e+02	2.02479077e+03	5.39105892e+06	1.87336715e+00	1.81844530e-05	5.08513560e-04	3.13535410e-13	4.96348716e-03
4.77077573e-01	1.19520001e-01	7.91015662e-03	1.41829096e+00	1.70774459e+05	3.00000000e+02	2.17667599e+03	5.49483209e+06	1.90475841e+00	1.81438751e-05	1.30982896e-03	7.43968487e-13	1.19673566e-02
4.75906431e-01	1.19520001e-01	7.91015662e-03	1.43240787e+00	1.73147978e+05	3.00000000e+02	2.18888292e+03	5.57403720e+06	1.91964902e+00	1.81431700e-05	1.31377291e-03	8.78329169e-13	1.19937007e-02
4.74737867e-01	1.19520001e-01	7.91015662e-03	1.45398611e+00	1.76506377e+05	3.00000000e+02	2.17965351e+03	5.66493547e+06	1.93048548e+00	1.81383470e-05	1.33527020e-03	1.05679907e-12	1.21720125e-02
4.73571911e-01	1.19520001e-01	7.91015662e-03	1.47733629e+00	1.80193773e+05	3.00000000e+02	2.13220006e+03	5.76543329e+06	1.92515260e+00	1.81333850e-05	1.37595840e-03	1.25967604e-12	1.25418169e-02
4.72408548e-01	1.19520001e-01	7.91015663e-03	1.49174838e+00	1.81619780e+05	3.00000000e+02	2.07125158e+03	5.71468881e+06	1.90592002e+00	1.81405281e-05	1.43458305e-03	1.49531203e-12	1.30824808e-02
4.71247748e-01	1.19520001e-01	7.91015663e-03	1.49324929e+00	1.80515889e+05	3.00000000e+02	1.98226675e+03	5.55293632e+06	1.86469321e+00	1.81480598e-05	1.52978469e-03	1.68258182e-12	1.38771858e-02
4.70089525e-01	1.19520001e-01	7.91015662e-03	1.46737201e+00	1.75281119e+05	3.00000000e+02	1.89163703e+03	5.29715358e+06	1.80549536e+00	1.81502674e-05	1.65690729e-03	1.76695508e-12	1.48858385e-02
4.77077573e-01	1.19520001e-01	7.32421899e-03	1.42547181e+00	1.73739272e+05	3.00000000e+02	2.06550987e+03	5.69595655e+06	1.86612469e+00	1.80860064e-05	2.82503516e-03	2.25711291e-12	2.47468531e-02
4.75906431e-01	1.19520001e-01	7.32421899e-03	1.43527657e+00	1.75633467e+05	3.00000000e+02	2.06952397e+03	5.76835568e+06	1.87386079e+00	1.80907298e-05	2.87315457e-03	2.71233304e-12	2.51134666e-02
4.74737867e-01	1.19520001e-01	7.32421898e-03	1.45025621e+00	1.77535684e+05	3.00000000e+02	2.05431053e+03	5.76069110e+06	1.87615302e+00	1.80957897e-05	2.98312908e-03	3.31359122e-12	2.59502400e-02
4.73571911e-01	1.19520001e-01	7.32421898e-03	1.47741735e+00	1.81467547e+05	3.00000000e+02	2.00428265e+03	5.83976648e+06	1.87189693e+00	1.80817114e-05	3.15563579e-03	4.17938585e-12	2.72629536e-02
4.72408548e-01	1.19520001e-01	7.32421898e-03	1.47762613e+00	1.81141159e+05	3.00000000e+02	1.91529147e+03	5.77488240e+06	1.82977894e+00	1.80838742e-05	3.40430157e-03	4.95840544e-12	2.94082322e-02
4.71247748e-01	1.19520001e-01	7.32421898e-03	1.46607439e+00	1.79381012e+05	3.00000000e+02	1.80787188e+03	5.74428678e+06	1.77325410e+00	1.80584820e-05	3.75431859e-03	5.57101332e-12	3.22217064e-02
4.70089525e-01	1.19520001e-01	7.32421899e-03	1.43026494e+00	1.72985731e+05	3.00000000e+02	1.69626892e+03	5.46674714e+06	1.69662530e+00	1.80576007e-05	4.20810249e-03	5.80729061e-12	3.58735991e-02
4.75906431e-01	1.19520001e-01	6.73828158e-03	1.43168331e+00	1.78014481e+05	3.00000000e+02	1.93164319e+03	6.00852593e+06	1.81357957e+00	1.80360198e-05	5.32980756e-03	6.01985854e-12	4.49233402e-02
4.74737867e-01	1.19520001e-01	6.73828157e-03	1.43921366e+00	1.79804186e+05	3.00000000e+02	1.90442402e+03	6.10722698e+06	1.80635583e+00	1.80273355e-05	5.60132404e-03	7.39631914e-12	4.70720351e-02
4.73571911e-01	1.19520001e-01	6.73828157e-03	1.45458035e+00	1.81947202e+05	3.00000000e+02	1.83222125e+03	6.11234253e+06	1.78163556e+00	1.80230932e-05	6.00706226e-03	9.08081861e-12	5.02491496e-02
4.72408548e-01	1.19520001e-01	6.73828158e-03	1.45108946e+00	1.81236262e+05	3.00000000e+02	1.72325065e+03	6.04921015e+06	1.72637832e+00	1.80167201e-05	6.59263304e-03	1.04291012e-11	5.48344425e-02
4.71247748e-01	1.19520001e-01	6.73828158e-03	1.42974682e+00	1.77600616e+05	3.00000000e+02	1.59681918e+03	5.88967348e+06	1.65035789e+00	1.80081746e-05	7.34547317e-03	1.09494342e-11	6.06892889e-02
4.70089525e-01	1.19520001e-01	6.73828158e-03	1.37919524e+00	1.69718391e+05	3.00000000e+02	1.48175652e+03	5.62664017e+06	1.56219284e+00	1.79993590e-05	8.29160102e-03	1.04154303e-11	6.79637063e-02
4.68933896e-01	1.19520001e-01	6.73828158e-03	1.30396764e+00	1.58951561e+05	3.00000000e+02	1.41542819e+03	5.35085217e+06	1.48527468e+00	1.79912332e-05	9.32814132e-03	9.32119365e-12	7.58282733e-02
4.75906431e-01	1.19520001e-01	6.15234417e-03	1.42634161e+00	1.81411796e+05	3.00000000e+02	1.77252836e+03	6.36969484e+06	1.73810731e+00	1.79937703e-05	8.55392670e-03	9.68893943e-12	7.01985728e-02
4.74737868e-01	1.19520001e-01	6.15234417e-03	1.42510590e+00	1.81843522e+05	3.00000000e+02	1.73684147e+03	6.42163250e+06	1.72012076e+00	1.79901633e-05	9.01008467e-03	1.14114019e-11	7.36696789e-02
4.73571911e-01	1.19520001e-01	6.15234417e-03	1.42748795e+00	1.82497910e+05	3.00000000e+02	1.65563432e+03	6.43104180e+06	1.68134572e+00	1.79846421e-05	9.70099563e-03	1.30787202e-11	7.89110315e-02
4.72408548e-01	1.19520001e-01	6.15234417e-03	1.41351809e+00	1.80609100e+05	3.00000000e+02	1.54576326e+03	6.36488996e+06	1.61714988e+00	1.79788657e-05	1.06420954e-02	1.39085478e-11	8.59502150e-02
4.71247748e-01	1.19520001e-01	6.15234417e-03	1.37827613e+00	1.75469963e+05	3.00000000e+02	1.43240738e+03	6.20825237e+06	1.53749776e+00	1.79753471e-05	1.17985611e-02	1.35111245e-11	9.44199807e-02
4.70089525e-01	1.19520001e-01	6.15234417e-03	1.31477342e+00	1.65921171e+05	3.00000000e+02	1.33162293e+03	5.90733084e+06	1.44829630e+00	1.79700404e-05	1.31311217e-02	1.14113933e-11	1.04046340e-01
4.68933896e-01	1.19520001e-01	6.15234417e-03	1.22985347e+00	1.53861745e+05	3.00000000e+02	1.29188217e+03	5.59858913e+06	1.38000814e+00	1.79658130e-05	1.44302943e-02	9.20455440e-12	1.13220702e-01
4.75906431e-01	1.19520001e-01	5.56640653e-03	1.41997340e+00	1.85539921e+05	3.00000000e+02	1.63945467e+03	6.82978931e+06	1.67029661e+00	1.79674562e-05	1.22037254e-02	1.24171938e-11	9.77876453e-02
4.74737868e-01	1.19520001e-01	5.56640653e-03	1.40514605e+00	1.84289170e+05	3.00000000e+02	1.61173312e+03	6.88645937e+06	1.64757953e+00	1.79659960e-05	1.28114109e-02	1.40319868e-11	1.02141374e-01
4.73571911e-01	1.19520001e-01	5.56640653e-03	1.39284604e+00	1.83068303e+05	3.00000000e+02	1.53756934e+03	6.88448523e+06	1.60239228e+00	1.79634792e-05	1.37248622e-02	1.50505327e-11	1.08646394e-01
4.72408548e-01	1.19520001e-01	5.56640653e-03	1.36836209e+00	1.79676385e+05	3.00000000e+02	1.43501730e+03	6.78191409e+06	1.53455937e+00	1.79612176e-05	1.49085956e-02	1.48344815e-11	1.16905263e-01
4.71247747e-01	1.19520001e-01	5.56640653e-03	1.32203844e+00	1.72731851e+05	3.00000000e+02	1.33028123e+03	6.55349882e+06	1.45244116e+00	1.79591431e-05	1.62883356e-02	1.30104968e-11	1.26299153e-01
4.70089525e-01	1.19520001e-01	5.56640653e-03	1.24579523e+00	1.61433798e+05	3.00000000e+02	1.26507082e+03	6.22118147e+06	1.37509269e+00	1.79572225e-05	1.77417230e-02	1.04424829e-11	1.35911120e-01
4.75906431e-01	1.19520001e-01	4.98046889e-03	1.41464657e+00	1.90484953e+05	3.00000000e+02	1.54455253e+03	7.38286886e+06	1.61925076e+00	1.79556690e-05	1.59262245e-02	1.48458992e-11	1.24296523e-01
4.74737868e-01	1.19520001e-01	4.98046889e-03	1.38697085e+00	1.87189791e+05	3.00000000e+02	1.52038710e+03	7.39639229e+06	1.59079901e+00	1.79550173e-05	1.66115321e-02	1.58582998e-11	1.28842066e-01
4.73571911e-01	1.19520001e-01	4.98046889e-03	1.35893856e+00	1.83668962e+05	3.00000000e+02	1.46395338e+03	7.35948399e+06	1.54519700e+00	1.79543656e-05	1.76524582e-02	1.62529297e-11	1.35653873e-01
4.72408548e-01	1.19520001e-01	4.98046889e-03	1.32081487e+00	1.78257933e+05	3.00000000e+02	1.38135516e+03	7.21632934e+06	1.47985401e+00	1.79533362e-05	1.89788678e-02	1.53810051e-11	1.44097824e-01
4.71247748e-01	1.19520001e-01	4.98046889e-03	1.26134315e+00	1.69236735e+05	3.00000000e+02	1.30007522e+03	6.92314670e+06	1.40307043e+00	1.79519562e-05	2.04741826e-02	1.31995906e-11	1.53235961e-01