VARIABLES ="X" "Y" "Z" "rho" "press" "temp" "tau_wall" "qdot" "yplus" "muLam" "ZMean" "ZVar" "CMean" 
Zone T ="wall" I = 8632 , F = point
5.68622500e-01	1.29320011e-01	4.39453148e-03	1.92161895e+00	2.23933671e+05	3.00000000e+02	2.61954892e+03	6.42625688e+06	1.83251409e+00	1.81775425e-05	8.24883297e-04	7.24240064e-13	8.15152548e-03
5.68622500e-01	1.29320011e-01	4.98046889e-03	1.90360923e+00	2.20800327e+05	3.00000000e+02	2.62295437e+03	6.32838276e+06	1.82424291e+00	1.81860004e-05	5.74216788e-04	4.96245965e-13	6.05218338e-03
5.86769879e-01	1.29320011e-01	2.92968761e-04	2.04605394e+00	2.44802946e+05	3.00000000e+02	2.11193496e+03	6.97160200e+06	1.70994006e+00	1.80490155e-05	4.13679446e-03	2.23287728e-12	3.57381123e-02
5.85355252e-01	1.29320011e-01	2.92968761e-04	1.99826244e+00	2.37648791e+05	3.00000000e+02	2.09399547e+03	6.80841729e+06	1.68210543e+00	1.80549594e-05	4.05118040e-03	2.06600987e-12	3.49643255e-02
5.83943754e-01	1.29320011e-01	2.92968761e-04	1.93308538e+00	2.28306897e+05	3.00000000e+02	2.09354875e+03	6.61862342e+06	1.65382702e+00	1.80597848e-05	3.96827688e-03	1.88358670e-12	3.43860936e-02
5.82535386e-01	1.29320011e-01	2.92968761e-04	1.86017934e+00	2.18049990e+05	3.00000000e+02	2.10826509e+03	6.42002437e+06	1.62786267e+00	1.80616677e-05	3.88831059e-03	1.71793010e-12	3.37764539e-02
5.81130147e-01	1.29320011e-01	2.92968761e-04	1.79429309e+00	2.08784944e+05	3.00000000e+02	2.11970147e+03	6.23608023e+06	1.60326492e+00	1.80598587e-05	3.81055224e-03	1.55348011e-12	3.30865041e-02
5.79728007e-01	1.29320011e-01	2.92968761e-04	1.74191972e+00	2.01319901e+05	3.00000000e+02	2.12328813e+03	6.07982595e+06	1.58161267e+00	1.80531918e-05	3.73479472e-03	1.37823997e-12	3.23721318e-02
5.78328996e-01	1.29320011e-01	2.92968761e-04	1.70757941e+00	1.96445163e+05	3.00000000e+02	2.13457200e+03	5.96561956e+06	1.56999979e+00	1.80543501e-05	3.66166334e-03	1.24360639e-12	3.17217762e-02
5.76933116e-01	1.29320011e-01	2.92968761e-04	1.69433155e+00	1.94551510e+05	3.00000000e+02	2.16887963e+03	5.90410413e+06	1.57549331e+00	1.80649165e-05	3.59097044e-03	1.21241982e-12	3.11447628e-02
5.75540334e-01	1.29320011e-01	2.92968761e-04	1.69911122e+00	1.95299425e+05	3.00000000e+02	2.21845730e+03	5.92158899e+06	1.59480566e+00	1.80744159e-05	3.52098419e-03	1.27914607e-12	3.06021218e-02
5.74150622e-01	1.29320011e-01	2.92968761e-04	1.71892917e+00	1.98223992e+05	3.00000000e+02	2.26927747e+03	6.00686555e+06	1.62190122e+00	1.80793989e-05	3.44975697e-03	1.41029747e-12	3.00307964e-02
5.72763980e-01	1.29320011e-01	2.92968761e-04	1.75393253e+00	2.03340655e+05	3.00000000e+02	2.31770791e+03	6.15409863e+06	1.65571793e+00	1.80794427e-05	3.37596355e-03	1.59422171e-12	2.94340383e-02
5.71380437e-01	1.29320011e-01	2.92968761e-04	1.80588004e+00	2.10831934e+05	3.00000000e+02	2.36285886e+03	6.34753119e+06	1.69639029e+00	1.80789482e-05	3.29873882e-03	1.83856610e-12	2.87435791e-02
5.69999934e-01	1.29320011e-01	2.92968761e-04	1.87643789e+00	2.20864427e+05	3.00000000e+02	2.39624726e+03	6.57645262e+06	1.74145961e+00	1.80781965e-05	3.21740135e-03	2.12659059e-12	2.79540113e-02
5.68622500e-01	1.29320011e-01	2.92968761e-04	1.96370287e+00	2.33251763e+05	3.00000000e+02	2.41105164e+03	6.82508768e+06	1.78666870e+00	1.80814274e-05	3.13204061e-03	2.44443174e-12	2.72411116e-02
5.86769879e-01	1.29320011e-01	8.78906286e-04	2.04531442e+00	2.44631042e+05	3.00000000e+02	2.14559121e+03	6.96314083e+06	1.72225318e+00	1.80589348e-05	3.96319377e-03	2.16446682e-12	3.44087874e-02
5.85355252e-01	1.29320011e-01	8.78906286e-04	1.99740151e+00	2.37780732e+05	3.00000000e+02	2.14010103e+03	6.83849104e+06	1.69962296e+00	1.80606273e-05	3.88334594e-03	2.08775610e-12	3.38078395e-02
5.83943754e-01	1.29320011e-01	8.78906286e-04	1.93301890e+00	2.28608186e+05	3.00000000e+02	2.13257600e+03	6.67220211e+06	1.66923128e+00	1.80588209e-05	3.80493066e-03	1.94088336e-12	3.31030604e-02
5.82535386e-01	1.29320011e-01	8.78906287e-04	1.86025863e+00	2.18215938e+05	3.00000000e+02	2.12317824e+03	6.47670624e+06	1.63452340e+00	1.80519593e-05	3.72756000e-03	1.70667446e-12	3.23536867e-02
5.81130147e-01	1.29320011e-01	8.78906286e-04	1.79420178e+00	2.08797402e+05	3.00000000e+02	2.12345783e+03	6.26961195e+06	1.60516663e+00	1.80539792e-05	3.65240005e-03	1.46480975e-12	3.16772470e-02
5.79728007e-01	1.29320011e-01	8.78906286e-04	1.74334399e+00	2.01513683e+05	3.00000000e+02	2.14689446e+03	6.07747204e+06	1.58993514e+00	1.80656288e-05	3.58074804e-03	1.31693880e-12	3.11020793e-02
5.78328997e-01	1.29320011e-01	8.78906287e-04	1.70960213e+00	1.96814729e+05	3.00000000e+02	2.18515509e+03	5.96349076e+06	1.58765672e+00	1.80745565e-05	3.51179633e-03	1.26650133e-12	3.05642261e-02
5.76933116e-01	1.29320011e-01	8.78906287e-04	1.69525977e+00	1.94910135e+05	3.00000000e+02	2.22396792e+03	5.93050467e+06	1.59457306e+00	1.80789649e-05	3.44321214e-03	1.27615568e-12	3.00120809e-02
5.75540334e-01	1.29320011e-01	8.78906286e-04	1.69940365e+00	1.95629471e+05	3.00000000e+02	2.26079025e+03	5.97053376e+06	1.60968820e+00	1.80789101e-05	3.37352450e-03	1.33204305e-12	2.94460592e-02
5.74150622e-01	1.29320011e-01	8.78906286e-04	1.72008766e+00	1.98610579e+05	3.00000000e+02	2.29784596e+03	6.05818598e+06	1.63270844e+00	1.80785130e-05	3.30190922e-03	1.43223264e-12	2.88033692e-02
5.72763980e-01	1.29320011e-01	8.78906287e-04	1.75678478e+00	2.03748705e+05	3.00000000e+02	2.33326791e+03	6.18542175e+06	1.66274753e+00	1.80780203e-05	3.22749301e-03	1.56404234e-12	2.80754147e-02
5.71380436e-01	1.29320011e-01	8.78906286e-04	1.80936555e+00	2.11129996e+05	3.00000000e+02	2.36931744e+03	6.35417954e+06	1.70028864e+00	1.80795546e-05	3.14976613e-03	1.72892909e-12	2.73939346e-02
5.69999934e-01	1.29320011e-01	8.78906286e-04	1.87849397e+00	2.21052666e+05	3.00000000e+02	2.41418538e+03	6.57098974e+06	1.74810814e+00	1.80866241e-05	3.06888041e-03	2.00609304e-12	2.68660940e-02
5.68622500e-01	1.29320011e-01	8.78906286e-04	1.96232544e+00	2.33119569e+05	3.00000000e+02	2.44616086e+03	6.82369471e+06	1.79802160e+00	1.80912558e-05	2.98399159e-03	2.39374767e-12	2.62458136e-02
5.86769879e-01	1.29320011e-01	1.46484381e-03	2.04381982e+00	2.44375359e+05	3.00000000e+02	2.17205808e+03	7.00073471e+06	1.73281268e+00	1.80526516e-05	3.63270070e-03	2.05934713e-12	3.16256742e-02
5.85355252e-01	1.29320011e-01	1.46484381e-03	2.00058260e+00	2.37827446e+05	3.00000000e+02	2.16300540e+03	6.82617653e+06	1.70959578e+00	1.80654675e-05	3.56135720e-03	1.93254511e-12	3.10754204e-02
5.83943754e-01	1.29320011e-01	1.46484381e-03	1.93895192e+00	2.28957225e+05	3.00000000e+02	2.16700154e+03	6.63783653e+06	1.68383666e+00	1.80737706e-05	3.49323803e-03	1.79920834e-12	3.05312728e-02
5.82535386e-01	1.29320011e-01	1.46484381e-03	1.86696238e+00	2.18781521e+05	3.00000000e+02	2.17723490e+03	6.43575839e+06	1.65583041e+00	1.80775749e-05	3.42678476e-03	1.64497503e-12	2.99784607e-02
5.81130147e-01	1.29320011e-01	1.46484381e-03	1.79894944e+00	2.09287166e+05	3.00000000e+02	2.18972811e+03	6.25118933e+06	1.63006157e+00	1.80774081e-05	3.36093042e-03	1.48806758e-12	2.94290343e-02
5.79728007e-01	1.29320011e-01	1.46484381e-03	1.74604246e+00	2.01888235e+05	3.00000000e+02	2.20353083e+03	6.09778983e+06	1.61098011e+00	1.80772508e-05	3.29525641e-03	1.36027814e-12	2.88222111e-02
5.78328997e-01	1.29320011e-01	1.46484381e-03	1.71234265e+00	1.97130156e+05	3.00000000e+02	2.21855182e+03	5.99378285e+06	1.60080184e+00	1.80770744e-05	3.22970629e-03	1.26842896e-12	2.81648817e-02
5.76933116e-01	1.29320011e-01	1.46484381e-03	1.69920696e+00	1.95208659e+05	3.00000000e+02	2.23858077e+03	5.94867634e+06	1.60177433e+00	1.80777257e-05	3.16379950e-03	1.21691998e-12	2.75603725e-02
5.75540334e-01	1.29320011e-01	1.46484381e-03	1.70446140e+00	1.95990374e+05	3.00000000e+02	2.27556823e+03	5.96929217e+06	1.61696241e+00	1.80831544e-05	3.09717851e-03	1.23681938e-12	2.71022168e-02
5.74150622e-01	1.29320011e-01	1.46484381e-03	1.72536554e+00	1.99080695e+05	3.00000000e+02	2.32681527e+03	6.05545098e+06	1.64458353e+00	1.80884425e-05	3.02873627e-03	1.34431886e-12	2.66354942e-02
5.72763980e-01	1.29320011e-01	1.46484381e-03	1.76186166e+00	2.04362263e+05	3.00000000e+02	2.37696977e+03	6.19480846e+06	1.67944675e+00	1.80911881e-05	2.95663012e-03	1.51254778e-12	2.60633344e-02
5.71380437e-01	1.29320011e-01	1.46484381e-03	1.81353569e+00	2.11705965e+05	3.00000000e+02	2.41728686e+03	6.37454092e+06	1.71846221e+00	1.80893416e-05	2.87944717e-03	1.71422167e-12	2.53747201e-02
5.69999933e-01	1.29320011e-01	1.46484381e-03	1.88022585e+00	2.21176785e+05	3.00000000e+02	2.44504507e+03	6.59515714e+06	1.76028019e+00	1.80843224e-05	2.79630345e-03	1.92605955e-12	2.46000623e-02
5.68622500e-01	1.29320011e-01	1.46484381e-03	1.96054626e+00	2.32552938e+05	3.00000000e+02	2.46760172e+03	6.81033506e+06	1.80493087e+00	1.80926050e-05	2.70754890e-03	2.18989007e-12	2.38156472e-02
5.88187665e-01	1.29320011e-01	2.05078133e-03	2.07164366e+00	2.48234094e+05	3.00000000e+02	2.27414618e+03	7.05753719e+06	1.78295963e+00	1.80742716e-05	3.25973295e-03	2.08607784e-12	2.86706364e-02
5.86769879e-01	1.29320011e-01	2.05078133e-03	2.04539747e+00	2.44235474e+05	3.00000000e+02	2.24700168e+03	6.97210477e+06	1.76102397e+00	1.80742750e-05	3.19432301e-03	2.00598661e-12	2.79794604e-02
5.85355252e-01	1.29320011e-01	2.05078133e-03	2.00419150e+00	2.37952981e+05	3.00000000e+02	2.21998216e+03	6.81873999e+06	1.73229405e+00	1.80783309e-05	3.13289427e-03	1.85557288e-12	2.74533526e-02
5.83943754e-01	1.29320011e-01	2.05078133e-03	1.94562797e+00	2.29349084e+05	3.00000000e+02	2.20695101e+03	6.62404377e+06	1.70134654e+00	1.80829409e-05	3.07498950e-03	1.67723469e-12	2.70656612e-02
5.82535386e-01	1.29320011e-01	2.05078133e-03	1.87513737e+00	2.19321298e+05	3.00000000e+02	2.21141685e+03	6.41514064e+06	1.67156763e+00	1.80868733e-05	3.01925458e-03	1.50738190e-12	2.66875880e-02
5.81130147e-01	1.29320011e-01	2.05078133e-03	1.80672618e+00	2.09810104e+05	3.00000000e+02	2.22768812e+03	6.22816909e+06	1.64659856e+00	1.80892779e-05	2.96379675e-03	1.36938863e-12	2.62502866e-02
5.79728007e-01	1.29320011e-01	2.05078133e-03	1.75305960e+00	2.02417239e+05	3.00000000e+02	2.24686157e+03	6.08524184e+06	1.62891355e+00	1.80893957e-05	2.90737962e-03	1.27222435e-12	2.57483040e-02
5.78328997e-01	1.29320011e-01	2.05078133e-03	1.71912611e+00	1.97730553e+05	3.00000000e+02	2.26454237e+03	5.99740191e+06	1.61968653e+00	1.80862579e-05	2.84960045e-03	1.20324628e-12	2.51956310e-02
5.76933116e-01	1.29320011e-01	2.05078133e-03	1.70583959e+00	1.95938461e+05	3.00000000e+02	2.28349616e+03	5.97659325e+06	1.62047988e+00	1.80826132e-05	2.79025861e-03	1.16165610e-12	2.46280151e-02
5.75540334e-01	1.29320011e-01	2.05078133e-03	1.71172417e+00	1.96787467e+05	3.00000000e+02	2.31558254e+03	5.99976195e+06	1.63430719e+00	1.80862667e-05	2.72868590e-03	1.16913462e-12	2.40730020e-02
5.74150622e-01	1.29320011e-01	2.05078133e-03	1.73360763e+00	1.99922092e+05	3.00000000e+02	2.36451429e+03	6.06637382e+06	1.66093256e+00	1.80979745e-05	2.66340068e-03	1.24965100e-12	2.35601837e-02
5.72763979e-01	1.29320011e-01	2.05078133e-03	1.77008082e+00	2.05190204e+05	3.00000000e+02	2.42081718e+03	6.19411356e+06	1.69733385e+00	1.81069736e-05	2.59272365e-03	1.40488899e-12	2.29984749e-02
5.71380436e-01	1.29320011e-01	2.05078133e-03	1.82074300e+00	2.12455507e+05	3.00000000e+02	2.46843886e+03	6.36727718e+06	1.73784490e+00	1.81117366e-05	2.51529875e-03	1.60634540e-12	2.23616027e-02
5.69999933e-01	1.29320011e-01	2.05078133e-03	1.88468108e+00	2.21576007e+05	3.00000000e+02	2.49951577e+03	6.57710984e+06	1.77936716e+00	1.81099355e-05	2.43039877e-03	1.83292512e-12	2.16521122e-02
5.68622500e-01	1.29320011e-01	2.05078133e-03	1.95764412e+00	2.31786727e+05	3.00000000e+02	2.51010844e+03	6.78339072e+06	1.81778768e+00	1.81052929e-05	2.33812560e-03	2.05166625e-12	2.07709664e-02
5.89608640e-01	1.29320011e-01	2.63671891e-03	2.08138891e+00	2.49232351e+05	3.00000000e+02	2.34789593e+03	7.07616489e+06	1.81524563e+00	1.80807415e-05	2.80989971e-03	1.88563233e-12	2.50524833e-02
5.88187664e-01	1.29320011e-01	2.63671891e-03	2.06990533e+00	2.47418336e+05	3.00000000e+02	2.31874076e+03	7.03675147e+06	1.79905700e+00	1.80797330e-05	2.74817414e-03	1.82595308e-12	2.44520404e-02
5.86769879e-01	1.29320011e-01	2.63671891e-03	2.04843717e+00	2.43903677e+05	3.00000000e+02	2.29608067e+03	6.92177069e+06	1.78009029e+00	1.80883295e-05	2.69289992e-03	1.74497184e-12	2.39811495e-02
5.85355252e-01	1.29320011e-01	2.63671891e-03	2.01023103e+00	2.38115113e+05	3.00000000e+02	2.28096019e+03	6.77346325e+06	1.75678515e+00	1.80966749e-05	2.64338150e-03	1.64479382e-12	2.35927887e-02
5.83943754e-01	1.29320011e-01	2.63671891e-03	1.95383215e+00	2.29918476e+05	3.00000000e+02	2.27079770e+03	6.59382908e+06	1.72751386e+00	1.81028480e-05	2.59785759e-03	1.51326100e-12	2.32194286e-02
5.82535386e-01	1.29320011e-01	2.63671891e-03	1.88490368e+00	2.20110215e+05	3.00000000e+02	2.26961245e+03	6.39004912e+06	1.69592398e+00	1.81071313e-05	2.55423772e-03	1.36744381e-12	2.28497561e-02
5.81130147e-01	1.29320011e-01	2.63671891e-03	1.81680425e+00	2.10622101e+05	3.00000000e+02	2.28102862e+03	6.20234587e+06	1.66896980e+00	1.81095039e-05	2.51033127e-03	1.24059130e-12	2.24751200e-02
5.79728007e-01	1.29320011e-01	2.63671891e-03	1.76256599e+00	2.03210620e+05	3.00000000e+02	2.30063134e+03	6.06531935e+06	1.65092977e+00	1.81093643e-05	2.46466836e-03	1.15656945e-12	2.20950233e-02
5.78328996e-01	1.29320011e-01	2.63671891e-03	1.72872334e+00	1.98655073e+05	3.00000000e+02	2.32478181e+03	5.98863759e+06	1.64367719e+00	1.81081013e-05	2.41621875e-03	1.11470864e-12	2.16591266e-02
5.76933116e-01	1.29320011e-01	2.63671891e-03	1.71682092e+00	1.97093554e+05	3.00000000e+02	2.34936151e+03	5.97375860e+06	1.64683574e+00	1.81060091e-05	2.36424198e-03	1.10534469e-12	2.11402469e-02
5.75540334e-01	1.29320011e-01	2.63671891e-03	1.72379516e+00	1.98039544e+05	3.00000000e+02	2.37116600e+03	6.00726207e+06	1.65815917e+00	1.81022762e-05	2.30751773e-03	1.10985388e-12	2.05667148e-02
5.74150622e-01	1.29320011e-01	2.63671891e-03	1.74533158e+00	2.00989063e+05	3.00000000e+02	2.39639002e+03	6.07949122e+06	1.67747366e+00	1.81007934e-05	2.24500904e-03	1.12407574e-12	2.00266624e-02
5.72763980e-01	1.29320011e-01	2.63671891e-03	1.78029561e+00	2.06058660e+05	3.00000000e+02	2.44064600e+03	6.20279542e+06	1.70901032e+00	1.81087873e-05	2.17605441e-03	1.20212275e-12	1.95693297e-02
5.71380436e-01	1.29320011e-01	2.63671891e-03	1.82951824e+00	2.13137230e+05	3.00000000e+02	2.49498863e+03	6.36209737e+06	1.75071615e+00	1.81185115e-05	2.09970657e-03	1.36499999e-12	1.90182728e-02
5.69999934e-01	1.29320011e-01	2.63671891e-03	1.88961296e+00	2.21639818e+05	3.00000000e+02	2.53403996e+03	6.53841281e+06	1.79248680e+00	1.81247819e-05	2.01524026e-03	1.56179857e-12	1.82948776e-02
5.68622500e-01	1.29320011e-01	2.63671891e-03	1.95356899e+00	2.30625786e+05	3.00000000e+02	2.54860895e+03	6.72160977e+06	1.82797610e+00	1.81230406e-05	1.92389888e-03	1.73293254e-12	1.74280154e-02
5.89608640e-01	1.29320011e-01	3.22265644e-03	2.07797812e+00	2.48109673e+05	3.00000000e+02	2.41433889e+03	7.02544152e+06	1.83739155e+00	1.80989542e-05	2.28367642e-03	1.61568772e-12	2.05336669e-02
5.88187665e-01	1.29320011e-01	3.22265643e-03	2.06947429e+00	2.46619127e+05	3.00000000e+02	2.38818093e+03	6.97697534e+06	1.82348049e+00	1.81008140e-05	2.23086068e-03	1.57449140e-12	2.00630776e-02
5.86769879e-01	1.29320011e-01	3.22265643e-03	2.05008135e+00	2.43460375e+05	3.00000000e+02	2.36394251e+03	6.88159096e+06	1.80526340e+00	1.81050205e-05	2.18445876e-03	1.50894018e-12	1.97373207e-02
5.85355252e-01	1.29320011e-01	3.22265644e-03	2.01465409e+00	2.38099091e+05	3.00000000e+02	2.34195970e+03	6.74764196e+06	1.78072338e+00	1.81104437e-05	2.14369046e-03	1.41395967e-12	1.94840245e-02
5.83943754e-01	1.29320011e-01	3.22265643e-03	1.96154780e+00	2.30323868e+05	3.00000000e+02	2.32366867e+03	6.57342773e+06	1.74981547e+00	1.81146478e-05	2.10751527e-03	1.28976816e-12	1.92402939e-02
5.82535386e-01	1.29320011e-01	3.22265644e-03	1.89522427e+00	2.20861778e+05	3.00000000e+02	2.31569244e+03	6.37434316e+06	1.71670892e+00	1.81179758e-05	2.07438712e-03	1.15765009e-12	1.89936019e-02
5.81130147e-01	1.29320011e-01	3.22265643e-03	1.82859846e+00	2.11621851e+05	3.00000000e+02	2.32400368e+03	6.19376852e+06	1.68903707e+00	1.81206593e-05	2.04195164e-03	1.05005740e-12	1.87246419e-02
5.79728007e-01	1.29320011e-01	3.22265643e-03	1.77498210e+00	2.04350995e+05	3.00000000e+02	2.34475603e+03	6.06089452e+06	1.67132075e+00	1.81226462e-05	2.00765552e-03	9.84983751e-13	1.84111878e-02
5.78328996e-01	1.29320011e-01	3.22265644e-03	1.74163507e+00	1.99929233e+05	3.00000000e+02	2.37208001e+03	5.98992164e+06	1.66509076e+00	1.81234524e-05	1.96925432e-03	9.59063124e-13	1.80339435e-02
5.76933116e-01	1.29320011e-01	3.22265643e-03	1.73047380e+00	1.98506699e+05	3.00000000e+02	2.39918493e+03	5.97962608e+06	1.66932770e+00	1.81220938e-05	1.92538135e-03	9.56256895e-13	1.75888711e-02
5.75540334e-01	1.29320011e-01	3.22265643e-03	1.73774128e+00	1.99631023e+05	3.00000000e+02	2.42496633e+03	6.02402660e+06	1.68186407e+00	1.81213321e-05	1.87525426e-03	9.66096818e-13	1.70941291e-02
5.74150622e-01	1.29320011e-01	3.22265644e-03	1.75939441e+00	2.02694097e+05	3.00000000e+02	2.45720436e+03	6.09823663e+06	1.70326470e+00	1.81240684e-05	1.81825329e-03	9.95860125e-13	1.65641439e-02
5.72763980e-01	1.29320011e-01	3.22265644e-03	1.79388220e+00	2.07557282e+05	3.00000000e+02	2.49922128e+03	6.19906003e+06	1.73353286e+00	1.81343851e-05	1.75344590e-03	1.06232226e-12	1.60498704e-02
5.71380437e-01	1.29320011e-01	3.22265643e-03	1.83947954e+00	2.13959785e+05	3.00000000e+02	2.54192257e+03	6.33078752e+06	1.76953954e+00	1.81427854e-05	1.68003986e-03	1.16718020e-12	1.54614096e-02
5.69999933e-01	1.29320011e-01	3.22265643e-03	1.89206342e+00	2.21376644e+05	3.00000000e+02	2.57255686e+03	6.48655518e+06	1.80498094e+00	1.81473540e-05	1.59896662e-03	1.28938147e-12	1.47899045e-02
5.68622500e-01	1.29320011e-01	3.22265643e-03	1.94603395e+00	2.29012881e+05	3.00000000e+02	2.58789339e+03	6.65134091e+06	1.83618152e+00	1.81454766e-05	1.51299445e-03	1.41397526e-12	1.40449401e-02
5.89608640e-01	1.29320011e-01	3.80859396e-03	2.07511856e+00	2.46927695e+05	3.00000000e+02	2.47270340e+03	6.94271521e+06	1.85559264e+00	1.81242659e-05	1.79191242e-03	1.28530262e-12	1.65746211e-02
5.88187664e-01	1.29320011e-01	3.80859396e-03	2.06856381e+00	2.45815675e+05	3.00000000e+02	2.46195600e+03	6.89998951e+06	1.84790949e+00	1.81313234e-05	1.74821390e-03	1.28241751e-12	1.62174993e-02
5.86769879e-01	1.29320011e-01	3.80859396e-03	2.05038563e+00	2.43009730e+05	3.00000000e+02	2.44365079e+03	6.82599365e+06	1.83239384e+00	1.81365267e-05	1.70990923e-03	1.24812006e-12	1.59003539e-02
5.85355252e-01	1.29320011e-01	3.80859396e-03	2.01703705e+00	2.37975027e+05	3.00000000e+02	2.41914849e+03	6.70498942e+06	1.80792587e+00	1.81402463e-05	1.67659881e-03	1.17411688e-12	1.56209540e-02
5.83943754e-01	1.29320011e-01	3.80859396e-03	1.96721536e+00	2.30621650e+05	3.00000000e+02	2.39580967e+03	6.53820397e+06	1.77657375e+00	1.81428064e-05	1.64807927e-03	1.07235733e-12	1.53782914e-02
5.82535386e-01	1.29320011e-01	3.80859396e-03	1.90510683e+00	2.21681802e+05	3.00000000e+02	2.38226416e+03	6.34576806e+06	1.74319168e+00	1.81445031e-05	1.62358158e-03	9.64826082e-13	1.51686656e-02
5.81130147e-01	1.29320011e-01	3.80859396e-03	1.84248468e+00	2.12944170e+05	3.00000000e+02	2.38490408e+03	6.17269077e+06	1.71514842e+00	1.81455982e-05	1.60091349e-03	8.78926152e-13	1.49778718e-02
5.79728007e-01	1.29320011e-01	3.80859396e-03	1.79143433e+00	2.06010495e+05	3.00000000e+02	2.40094506e+03	6.04780806e+06	1.69687042e+00	1.81458984e-05	1.57659914e-03	8.27164458e-13	1.47827445e-02
5.78328996e-01	1.29320011e-01	3.80859396e-03	1.75911653e+00	2.01755952e+05	3.00000000e+02	2.42593627e+03	5.98470922e+06	1.69026130e+00	1.81454920e-05	1.54738700e-03	8.06881626e-13	1.45397840e-02
5.76933116e-01	1.29320011e-01	3.80859396e-03	1.74842410e+00	2.00453980e+05	3.00000000e+02	2.45421781e+03	5.98158387e+06	1.69500579e+00	1.81444728e-05	1.51125116e-03	8.09337625e-13	1.42055976e-02
5.75540334e-01	1.29320011e-01	3.80859396e-03	1.75657534e+00	2.01644017e+05	3.00000000e+02	2.48003423e+03	6.02311655e+06	1.70807758e+00	1.81422119e-05	1.46744299e-03	8.23324346e-13	1.37685865e-02
5.74150622e-01	1.29320011e-01	3.80859396e-03	1.77818896e+00	2.04573250e+05	3.00000000e+02	2.50029902e+03	6.09251804e+06	1.72597663e+00	1.81378421e-05	1.41571480e-03	8.35836466e-13	1.32461461e-02
5.72763980e-01	1.29320011e-01	3.80859396e-03	1.80939409e+00	2.08783852e+05	3.00000000e+02	2.51793578e+03	6.18534116e+06	1.74774867e+00	1.81319922e-05	1.35591772e-03	8.39749965e-13	1.27004669e-02
5.71380436e-01	1.29320011e-01	3.80859396e-03	1.84873795e+00	2.14402173e+05	3.00000000e+02	2.54734108e+03	6.30974903e+06	1.77625553e+00	1.81389182e-05	1.28852489e-03	8.70717878e-13	1.22249907e-02
5.69999934e-01	1.29320011e-01	3.80859396e-03	1.89352766e+00	2.20753624e+05	3.00000000e+02	2.58538502e+03	6.43263365e+06	1.80977971e+00	1.81513245e-05	1.21522709e-03	9.49398124e-13	1.16881546e-02
5.68622500e-01	1.29320011e-01	3.80859396e-03	1.93652601e+00	2.26794284e+05	3.00000000e+02	2.61227718e+03	6.54360928e+06	1.83870597e+00	1.81612027e-05	1.13912123e-03	1.03404619e-12	1.10378482e-02
5.89608640e-01	1.29320011e-01	4.39453149e-03	2.06855754e+00	2.45671073e+05	3.00000000e+02	2.53657397e+03	6.93164121e+06	1.87565979e+00	1.81317239e-05	1.36165984e-03	1.03404505e-12	1.28807010e-02
5.88187665e-01	1.29320011e-01	4.39453149e-03	2.06361980e+00	2.44813133e+05	3.00000000e+02	2.51367775e+03	6.90340223e+06	1.86476710e+00	1.81334585e-05	1.32477132e-03	1.01605437e-12	1.25573696e-02
5.86769879e-01	1.29320011e-01	4.39453149e-03	2.04778248e+00	2.42242315e+05	3.00000000e+02	2.48667425e+03	6.82592186e+06	1.84723317e+00	1.81369910e-05	1.29220559e-03	9.72224029e-13	1.23089556e-02
5.85355252e-01	1.29320011e-01	4.39453149e-03	2.01702461e+00	2.37477336e+05	3.00000000e+02	2.45842409e+03	6.69686615e+06	1.82235743e+00	1.81420364e-05	1.26418439e-03	9.03881374e-13	1.21168886e-02
5.83943754e-01	1.29320011e-01	4.39453148e-03	1.97070431e+00	2.30545338e+05	3.00000000e+02	2.43244269e+03	6.52734265e+06	1.79138641e+00	1.81458937e-05	1.24124646e-03	8.18355033e-13	1.19548975e-02
5.82535386e-01	1.29320011e-01	4.39453148e-03	1.91398921e+00	2.22313238e+05	3.00000000e+02	2.41629317e+03	6.34073182e+06	1.75928068e+00	1.81486791e-05	1.22325745e-03	7.33155203e-13	1.18272682e-02
5.81130147e-01	1.29320011e-01	4.39453148e-03	1.85734156e+00	2.14367341e+05	3.00000000e+02	2.41599924e+03	6.17693664e+06	1.73274552e+00	1.81507719e-05	1.20835199e-03	6.67176619e-13	1.17237939e-02
5.79728007e-01	1.29320011e-01	4.39453148e-03	1.81075710e+00	2.08060971e+05	3.00000000e+02	2.43162097e+03	6.06239980e+06	1.71620483e+00	1.81528373e-05	1.19271830e-03	6.29709620e-13	1.16126943e-02
5.78328996e-01	1.29320011e-01	4.39453149e-03	1.78054686e+00	2.04158683e+05	3.00000000e+02	2.46014374e+03	6.00743121e+06	1.71152831e+00	1.81555101e-05	1.17231167e-03	6.20193405e-13	1.14513550e-02
5.76933116e-01	1.29320011e-01	4.39453148e-03	1.76968433e+00	2.02940065e+05	3.00000000e+02	2.49453729e+03	6.00898749e+06	1.71785628e+00	1.81589892e-05	1.14422232e-03	6.31150035e-13	1.12015120e-02
5.75540334e-01	1.29320011e-01	4.39453148e-03	1.77646741e+00	2.04041762e+05	3.00000000e+02	2.52572803e+03	6.04824926e+06	1.73151932e+00	1.81626899e-05	1.10738198e-03	6.50247525e-13	1.08441237e-02
5.74150622e-01	1.29320011e-01	4.39453149e-03	1.79614433e+00	2.06774133e+05	3.00000000e+02	2.54921099e+03	6.10808424e+06	1.74891087e+00	1.81652520e-05	1.06214356e-03	6.65675458e-13	1.03858643e-02
5.72763980e-01	1.29320011e-01	4.39453149e-03	1.82436804e+00	2.10570659e+05	3.00000000e+02	2.56572943e+03	6.18049409e+06	1.76829226e+00	1.81653264e-05	1.00950057e-03	6.72400804e-13	9.84911475e-03
5.71380437e-01	1.29320011e-01	4.39453149e-03	1.85759954e+00	2.15024070e+05	3.00000000e+02	2.57967573e+03	6.25818701e+06	1.78906080e+00	1.81664096e-05	9.50895846e-04	6.76466465e-13	9.27087059e-03
5.69999933e-01	1.29320011e-01	4.39453148e-03	1.89137891e+00	2.19658162e+05	3.00000000e+02	2.59687248e+03	6.34215935e+06	1.81085030e+00	1.81705314e-05	8.88232470e-04	6.91104418e-13	8.68621440e-03
5.88187664e-01	1.29320011e-01	4.98046889e-03	2.06231627e+00	2.43965485e+05	3.00000000e+02	2.58105216e+03	6.82217473e+06	1.88600005e+00	1.81622614e-05	9.72938182e-04	7.65934866e-13	9.80766251e-03
5.86769879e-01	1.29320011e-01	4.98046889e-03	2.04591855e+00	2.41456660e+05	3.00000000e+02	2.55618164e+03	6.76197209e+06	1.86931852e+00	1.81631979e-05	9.46286954e-04	7.35952538e-13	9.50946203e-03
5.85355252e-01	1.29320011e-01	4.98046889e-03	2.01499961e+00	2.36777246e+05	3.00000000e+02	2.52632989e+03	6.64972065e+06	1.84416331e+00	1.81643028e-05	9.23291272e-04	6.83298129e-13	9.24636510e-03
5.83943754e-01	1.29320011e-01	4.98046889e-03	1.97125813e+00	2.30252948e+05	3.00000000e+02	2.49759088e+03	6.49464295e+06	1.81348489e+00	1.81657801e-05	9.04935328e-04	6.19013732e-13	9.03892565e-03
5.82535386e-01	1.29320011e-01	4.98046889e-03	1.92096849e+00	2.22906027e+05	3.00000000e+02	2.47855672e+03	6.32433114e+06	1.78315582e+00	1.81679469e-05	8.91497516e-04	5.59362160e-13	8.89338149e-03
5.81130147e-01	1.29320011e-01	4.98046889e-03	1.87276176e+00	2.16061618e+05	3.00000000e+02	2.47177284e+03	6.17636766e+06	1.75807032e+00	1.81695804e-05	8.81406469e-04	5.13680717e-13	8.77862302e-03
5.79728007e-01	1.29320011e-01	4.98046889e-03	1.83367461e+00	2.10671289e+05	3.00000000e+02	2.47736906e+03	6.06983161e+06	1.74144859e+00	1.81711089e-05	8.71201798e-04	4.84473357e-13	8.66847606e-03
5.78328997e-01	1.29320011e-01	4.98046889e-03	1.80775517e+00	2.07235028e+05	3.00000000e+02	2.49488555e+03	6.01317684e+06	1.73502510e+00	1.81729301e-05	8.56952354e-04	4.70899174e-13	8.53439731e-03
5.76933116e-01	1.29320011e-01	4.98046889e-03	1.79718614e+00	2.05977681e+05	3.00000000e+02	2.52105146e+03	6.00667374e+06	1.73876779e+00	1.81752920e-05	8.35559127e-04	4.70330199e-13	8.35121447e-03
5.75540334e-01	1.29320011e-01	4.98046889e-03	1.80122526e+00	2.06697519e+05	3.00000000e+02	2.54898671e+03	6.03735129e+06	1.75006017e+00	1.81781807e-05	8.05723427e-04	4.77339676e-13	8.10294626e-03
5.74150622e-01	1.29320011e-01	4.98046889e-03	1.81638175e+00	2.08859973e+05	3.00000000e+02	2.57269406e+03	6.08855645e+06	1.76525793e+00	1.81813054e-05	7.67926042e-04	4.84704102e-13	7.78564854e-03
5.72763980e-01	1.29320011e-01	4.98046889e-03	1.83862505e+00	2.11919765e+05	3.00000000e+02	2.58963163e+03	6.15004376e+06	1.78159900e+00	1.81840751e-05	7.23630814e-04	4.88186719e-13	7.41533711e-03
5.71380436e-01	1.29320011e-01	4.98046889e-03	1.86351066e+00	2.15276709e+05	3.00000000e+02	2.60049540e+03	6.21275874e+06	1.79723060e+00	1.81855223e-05	6.74772513e-04	4.88767074e-13	7.00963025e-03
5.69999934e-01	1.29320011e-01	4.98046889e-03	1.88618215e+00	2.18330031e+05	3.00000000e+02	2.60931307e+03	6.26940324e+06	1.81111963e+00	1.81862588e-05	6.23857651e-04	4.89547390e-13	6.54156539e-03
5.88187664e-01	1.29320011e-01	5.56640653e-03	2.06012876e+00	2.43030573e+05	3.00000000e+02	2.61178538e+03	6.74771236e+06	1.89391377e+00	1.81840794e-05	6.93203702e-04	5.45233403e-13	7.34391062e-03
5.86769879e-01	1.29320011e-01	5.56640653e-03	2.04335457e+00	2.40454206e+05	3.00000000e+02	2.58785225e+03	6.68600618e+06	1.87746673e+00	1.81846502e-05	6.71260290e-04	5.21384307e-13	7.16724123e-03
5.85355252e-01	1.29320011e-01	5.56640653e-03	2.01246930e+00	2.35765289e+05	3.00000000e+02	2.56045175e+03	6.57331183e+06	1.85329280e+00	1.81850495e-05	6.52309390e-04	4.81397765e-13	7.00470057e-03
5.83943754e-01	1.29320011e-01	5.56640653e-03	1.97145974e+00	2.29651668e+05	3.00000000e+02	2.53653634e+03	6.42954502e+06	1.82570167e+00	1.81852923e-05	6.37462820e-04	4.36480118e-13	6.87092027e-03
5.82535386e-01	1.29320011e-01	5.56640653e-03	1.92782899e+00	2.23301806e+05	3.00000000e+02	2.52145247e+03	6.28681111e+06	1.79999683e+00	1.81854270e-05	6.27081191e-04	3.97964148e-13	6.77266043e-03
5.81130147e-01	1.29320011e-01	5.56640653e-03	1.88899199e+00	2.17784618e+05	3.00000000e+02	2.51562447e+03	6.16963003e+06	1.77970501e+00	1.81855122e-05	6.19865344e-04	3.71312740e-13	6.69938497e-03
5.79728007e-01	1.29320011e-01	5.56640653e-03	1.85867296e+00	2.13598117e+05	3.00000000e+02	2.51803765e+03	6.08912277e+06	1.76620326e+00	1.81855950e-05	6.12910783e-04	3.55699810e-13	6.62235813e-03
5.78328997e-01	1.29320011e-01	5.56640653e-03	1.83826259e+00	2.10875209e+05	3.00000000e+02	2.52717740e+03	6.04549480e+06	1.75965502e+00	1.81856866e-05	6.02753325e-04	3.47620540e-13	6.50545209e-03
5.76933116e-01	1.29320011e-01	5.56640653e-03	1.82850995e+00	2.09644659e+05	3.00000000e+02	2.54081752e+03	6.03428950e+06	1.75970801e+00	1.81857153e-05	5.86551991e-04	3.43234994e-13	6.31979789e-03
5.75540334e-01	1.29320011e-01	5.56640653e-03	1.82925746e+00	2.09817385e+05	3.00000000e+02	2.55558764e+03	6.04807173e+06	1.76519783e+00	1.81854905e-05	5.63068506e-04	3.39671256e-13	6.05645604e-03
5.74150622e-01	1.29320011e-01	5.56640653e-03	1.83860293e+00	2.11089893e+05	3.00000000e+02	2.56754603e+03	6.07665527e+06	1.77390928e+00	1.81847479e-05	5.32813159e-04	3.34558809e-13	5.72861933e-03
5.72763979e-01	1.29320011e-01	5.56640653e-03	1.85280458e+00	2.12943890e+05	3.00000000e+02	2.57310009e+03	6.10905729e+06	1.78281720e+00	1.81832675e-05	4.97398646e-04	3.25678938e-13	5.36021796e-03
5.71380436e-01	1.29320011e-01	5.56640653e-03	1.86670580e+00	2.14773118e+05	3.00000000e+02	2.57450196e+03	6.14326226e+06	1.79020596e+00	1.81809742e-05	4.59039869e-04	3.13298272e-13	4.99170185e-03
5.69999934e-01	1.29320011e-01	5.56640653e-03	1.87773064e+00	2.16340030e+05	3.00000000e+02	2.58330814e+03	6.17605138e+06	1.79807401e+00	1.81858157e-05	4.20384247e-04	3.06757614e-13	4.68019303e-03
5.88187664e-01	1.29320011e-01	6.15234417e-03	2.05740384e+00	2.42051672e+05	3.00000000e+02	2.61823389e+03	6.70706073e+06	1.89519826e+00	1.81821376e-05	4.79013984e-04	3.72187547e-13	5.37848705e-03
5.86769879e-01	1.29320011e-01	6.15234417e-03	2.03895354e+00	2.39256256e+05	3.00000000e+02	2.59090658e+03	6.64311817e+06	1.87691742e+00	1.81810924e-05	4.61147391e-04	3.50638156e-13	5.17140907e-03
5.85355252e-01	1.29320011e-01	6.15234417e-03	2.00742443e+00	2.34476761e+05	3.00000000e+02	2.56278337e+03	6.52689638e+06	1.85220432e+00	1.81811879e-05	4.45634482e-04	3.18940169e-13	5.01061103e-03