VARIABLES ="X" "Y" "Z" "rho" "press" "temp" "tau_wall" "qdot" "yplus" "muLam" "ZMean" "ZVar" "CMean" 
Zone T ="wall" I = 8632 , F = point
5.68622500e-01	1.29320011e-01	4.39453148e-03	1.80094831e+00	2.01810858e+05	3.00000000e+02	2.38634454e+03	5.46845721e+06	1.69246246e+00	1.81858561e-05	5.74666516e-04	4.10717788e-13	6.10991490e-03
5.68622500e-01	1.29320011e-01	4.98046889e-03	1.81976872e+00	2.03827706e+05	3.00000000e+02	2.40302549e+03	5.47447369e+06	1.70662008e+00	1.81922339e-05	3.70830161e-04	2.59103221e-13	4.30777251e-03
5.68622500e-01	1.29320011e-01	2.92968761e-04	1.73253705e+00	1.94972838e+05	3.00000000e+02	2.02297873e+03	5.44868028e+06	1.53665706e+00	1.80882089e-05	2.74912493e-03	1.42626539e-12	2.41225260e-02
5.68622500e-01	1.29320011e-01	8.78906286e-04	1.73557138e+00	1.95376705e+05	3.00000000e+02	2.07473828e+03	5.44098888e+06	1.55579105e+00	1.81086980e-05	2.59707146e-03	1.41991231e-12	2.29271684e-02
5.68622500e-01	1.29320011e-01	1.46484381e-03	1.73851816e+00	1.95696371e+05	3.00000000e+02	2.10995555e+03	5.48553403e+06	1.57069303e+00	1.81038336e-05	2.31541287e-03	1.36072005e-12	2.05133177e-02
5.68622500e-01	1.29320011e-01	2.05078133e-03	1.74689378e+00	1.96411830e+05	3.00000000e+02	2.17529943e+03	5.46627224e+06	1.59684591e+00	1.81244718e-05	1.95109937e-03	1.20873074e-12	1.77091576e-02
5.68622500e-01	1.29320011e-01	2.63671891e-03	1.75679622e+00	1.97305773e+05	3.00000000e+02	2.24374434e+03	5.45534054e+06	1.62437807e+00	1.81466247e-05	1.55593711e-03	1.03140127e-12	1.44693396e-02
5.68622500e-01	1.29320011e-01	3.22265643e-03	1.76923130e+00	1.98448857e+05	3.00000000e+02	2.29120808e+03	5.45547117e+06	1.64630599e+00	1.81572307e-05	1.17474545e-03	7.77914683e-13	1.13441961e-02
5.68622500e-01	1.29320011e-01	3.80859396e-03	1.78448466e+00	1.99952425e+05	3.00000000e+02	2.34188522e+03	5.44409445e+06	1.66987295e+00	1.81757098e-05	8.43463973e-04	5.76171598e-13	8.30401205e-03
5.69999933e-01	1.29320011e-01	4.39453148e-03	1.79747989e+00	2.01280009e+05	3.00000000e+02	2.36934636e+03	5.44752363e+06	1.68478437e+00	1.81860160e-05	5.99768012e-04	4.11316743e-13	6.37987537e-03
5.69999934e-01	1.29320011e-01	4.98046889e-03	1.81580055e+00	2.03202300e+05	3.00000000e+02	2.38512041e+03	5.45350071e+06	1.69861846e+00	1.81898443e-05	3.88987405e-04	2.58841644e-13	4.45653996e-03
5.69999934e-01	1.29320011e-01	5.56640653e-03	1.83636524e+00	2.05504194e+05	3.00000000e+02	2.40620992e+03	5.45242006e+06	1.71419553e+00	1.82062929e-05	2.40278911e-04	1.62123303e-13	3.13806349e-03
5.69999934e-01	1.29320011e-01	6.15234417e-03	1.85859666e+00	2.07799269e+05	3.00000000e+02	2.39548950e+03	5.43838577e+06	1.72031403e+00	1.82103200e-05	1.40760889e-04	9.31402202e-14	1.78394459e-03
5.69999933e-01	1.29320011e-01	6.73828158e-03	1.88040008e+00	2.10041109e+05	3.00000000e+02	2.36527799e+03	5.42383403e+06	1.71946065e+00	1.82099847e-05	7.80191560e-05	4.97117958e-14	8.87875408e-04
5.69999933e-01	1.29320011e-01	7.32421898e-03	1.90042407e+00	2.12029869e+05	3.00000000e+02	2.32582459e+03	5.39967314e+06	1.71412431e+00	1.82098774e-05	4.11248807e-05	2.49626484e-14	4.24012528e-04
5.69999934e-01	1.29320011e-01	7.91015662e-03	1.91739869e+00	2.13651035e+05	3.00000000e+02	2.28523613e+03	5.37094435e+06	1.70667625e+00	1.82098432e-05	2.09280528e-05	1.19129658e-14	1.99557018e-04
5.69999934e-01	1.29320011e-01	8.49609403e-03	1.92933880e+00	2.14716123e+05	3.00000000e+02	2.25074911e+03	5.34215282e+06	1.69901595e+00	1.82098318e-05	1.08125803e-05	5.60395623e-15	9.72428989e-05
5.69999934e-01	1.29320011e-01	9.08203144e-03	1.93568047e+00	2.15560325e+05	3.00000000e+02	2.24603350e+03	5.35807162e+06	1.70002261e+00	1.82098281e-05	6.68808066e-06	3.23681930e-15	5.78774764e-05
5.63143372e-01	1.29320011e-01	2.92968761e-04	1.88312746e+00	2.15604620e+05	3.00000000e+02	2.16440350e+03	5.88625832e+06	1.65499660e+00	1.81112099e-05	2.43738335e-03	2.16676384e-12	2.16131995e-02
5.61781168e-01	1.29320011e-01	2.92968761e-04	1.95193735e+00	2.25056095e+05	3.00000000e+02	2.16630199e+03	6.08457104e+06	1.68607463e+00	1.81071975e-05	2.35159152e-03	2.46338572e-12	2.07784237e-02
5.60422004e-01	1.29320011e-01	2.92968761e-04	2.02190157e+00	2.34425037e+05	3.00000000e+02	2.14269259e+03	6.25205993e+06	1.70721673e+00	1.81011795e-05	2.26235577e-03	2.66761816e-12	1.99152732e-02
5.59065848e-01	1.29320011e-01	2.92968761e-04	2.08274346e+00	2.42620050e+05	3.00000000e+02	2.11334373e+03	6.35968922e+06	1.71958296e+00	1.81140442e-05	2.17218869e-03	2.87119967e-12	1.93326617e-02
5.57712704e-01	1.29320011e-01	2.92968761e-04	2.11696290e+00	2.47198678e+05	3.00000000e+02	2.08269264e+03	6.41519425e+06	1.72010001e+00	1.81238773e-05	2.08232654e-03	3.08406336e-12	1.86729597e-02
5.63143372e-01	1.29320011e-01	8.78906286e-04	1.88243962e+00	2.15404704e+05	3.00000000e+02	2.17386435e+03	5.90901007e+06	1.65916351e+00	1.81018581e-05	2.28860772e-03	1.99476265e-12	2.01934915e-02
5.61781168e-01	1.29320011e-01	8.78906286e-04	1.95080749e+00	2.24656596e+05	3.00000000e+02	2.18016806e+03	6.06896950e+06	1.69080743e+00	1.81089655e-05	2.20448059e-03	2.18784788e-12	1.95648884e-02
5.60422004e-01	1.29320011e-01	8.78906287e-04	2.01966569e+00	2.34117287e+05	3.00000000e+02	2.19013030e+03	6.22881509e+06	1.72332870e+00	1.81193325e-05	2.12003104e-03	2.51314930e-12	1.90152312e-02
5.59065848e-01	1.29320011e-01	8.78906286e-04	2.07745097e+00	2.42140191e+05	3.00000000e+02	2.17600571e+03	6.36961356e+06	1.74151553e+00	1.81260700e-05	2.03435434e-03	2.84475281e-12	1.83203002e-02
5.57712704e-01	1.29320011e-01	8.78906287e-04	2.10974393e+00	2.46474543e+05	3.00000000e+02	2.13324843e+03	6.44072866e+06	1.73768386e+00	1.81259351e-05	1.94729737e-03	3.00640248e-12	1.74872717e-02
5.63143372e-01	1.29320011e-01	1.46484381e-03	1.88460495e+00	2.15545435e+05	3.00000000e+02	2.23821678e+03	5.88534968e+06	1.68229357e+00	1.81257109e-05	2.02278493e-03	1.84747842e-12	1.82750309e-02
5.61781168e-01	1.29320011e-01	1.46484381e-03	1.94927594e+00	2.24437529e+05	3.00000000e+02	2.25189488e+03	6.06756142e+06	1.71620876e+00	1.81249243e-05	1.94198173e-03	2.09657578e-12	1.75175404e-02
5.60422004e-01	1.29320011e-01	1.46484381e-03	2.01481821e+00	2.33398401e+05	3.00000000e+02	2.24485491e+03	6.23052020e+06	1.74195403e+00	1.81263758e-05	1.85901742e-03	2.31885105e-12	1.67160835e-02
5.59065848e-01	1.29320011e-01	1.46484381e-03	2.07184866e+00	2.41078006e+05	3.00000000e+02	2.22433288e+03	6.33825549e+06	1.75736842e+00	1.81364250e-05	1.77599206e-03	2.51767321e-12	1.59534238e-02
5.63143372e-01	1.29320011e-01	2.05078133e-03	1.88772434e+00	2.15452213e+05	3.00000000e+02	2.29512547e+03	5.84440708e+06	1.70317473e+00	1.81446626e-05	1.68086645e-03	1.58667813e-12	1.53418904e-02
5.61781168e-01	1.29320011e-01	2.05078133e-03	1.94863090e+00	2.23906129e+05	3.00000000e+02	2.31811092e+03	6.02009463e+06	1.73873914e+00	1.81481795e-05	1.60340153e-03	1.80415040e-12	1.47279121e-02
5.60422003e-01	1.29320011e-01	2.05078133e-03	2.00965194e+00	2.32381646e+05	3.00000000e+02	2.31892960e+03	6.19460942e+06	1.76623573e+00	1.81464274e-05	1.52473074e-03	2.02694540e-12	1.40721786e-02
5.59065848e-01	1.29320011e-01	2.05078133e-03	2.06137821e+00	2.39480712e+05	3.00000000e+02	2.29302845e+03	6.33244463e+06	1.77928779e+00	1.81414903e-05	1.44714862e-03	2.19170993e-12	1.33000197e-02
5.63143372e-01	1.29320011e-01	2.63671891e-03	1.89036737e+00	2.15115721e+05	3.00000000e+02	2.31421069e+03	5.82895866e+06	1.71209293e+00	1.81377252e-05	1.30982303e-03	1.19327854e-12	1.22412700e-02
5.61781168e-01	1.29320011e-01	2.63671891e-03	1.94716994e+00	2.22941313e+05	3.00000000e+02	2.34580891e+03	5.97198061e+06	1.74830902e+00	1.81495409e-05	1.23944743e-03	1.31994976e-12	1.17667778e-02
5.60422003e-01	1.29320011e-01	2.63671891e-03	2.00342727e+00	2.30713386e+05	3.00000000e+02	2.36529814e+03	6.11190282e+06	1.77978194e+00	1.81592763e-05	1.16945017e-03	1.47879186e-12	1.12116022e-02
5.59065848e-01	1.29320011e-01	2.63671891e-03	2.05099893e+00	2.37298934e+05	3.00000000e+02	2.36337415e+03	6.23018922e+06	1.79945763e+00	1.81653148e-05	1.10290434e-03	1.61728598e-12	1.06116726e-02
5.63143372e-01	1.29320011e-01	3.22265643e-03	1.89315158e+00	2.15201207e+05	3.00000000e+02	2.38641749e+03	5.79795885e+06	1.73702295e+00	1.81675325e-05	9.65027278e-04	9.42712180e-13	9.28076405e-03
5.61781168e-01	1.29320011e-01	3.22265643e-03	1.94263951e+00	2.21877012e+05	3.00000000e+02	2.40197893e+03	5.91864921e+06	1.76504101e+00	1.81702750e-05	9.04501895e-04	9.95349969e-13	8.67857078e-03
5.60422003e-01	1.29320011e-01	3.22265644e-03	1.99154570e+00	2.28585603e+05	3.00000000e+02	2.41428937e+03	6.03916529e+06	1.79101282e+00	1.81771881e-05	8.44923929e-04	1.06700440e-12	8.16949901e-03
5.59065848e-01	1.29320011e-01	3.22265643e-03	2.03371340e+00	2.34407382e+05	3.00000000e+02	2.41553438e+03	6.14459279e+06	1.80984794e+00	1.81821399e-05	7.89651842e-04	1.14017049e-12	7.70521415e-03
5.63143372e-01	1.29320011e-01	3.80859396e-03	1.89539828e+00	2.15022435e+05	3.00000000e+02	2.43544732e+03	5.75809200e+06	1.75404078e+00	1.81859303e-05	6.71181336e-04	6.64101013e-13	6.91335421e-03
5.61781168e-01	1.29320011e-01	3.80859396e-03	1.93648397e+00	2.20616272e+05	3.00000000e+02	2.45026954e+03	5.86970596e+06	1.77828101e+00	1.81864985e-05	6.22000586e-04	6.94808004e-13	6.46544781e-03
5.60422003e-01	1.29320011e-01	3.80859396e-03	1.97648594e+00	2.26123700e+05	3.00000000e+02	2.45935866e+03	5.98164063e+06	1.79991577e+00	1.81861686e-05	5.74532905e-04	7.28348348e-13	5.99812985e-03
5.59065848e-01	1.29320011e-01	3.80859396e-03	2.01217036e+00	2.31103182e+05	3.00000000e+02	2.45978600e+03	6.08596370e+06	1.81636464e+00	1.81850121e-05	5.31480031e-04	7.61743720e-13	5.54550611e-03
5.63143372e-01	1.29320011e-01	4.39453148e-03	1.89550244e+00	2.14463598e+05	3.00000000e+02	2.43668297e+03	5.72447253e+06	1.75473483e+00	1.81838478e-05	4.39693652e-04	4.12773836e-13	4.76149813e-03
5.61781168e-01	1.29320011e-01	4.39453148e-03	1.92811432e+00	2.18918078e+05	3.00000000e+02	2.45445290e+03	5.80875247e+06	1.77569918e+00	1.81890470e-05	4.02631092e-04	4.22914454e-13	4.46944879e-03
5.60422003e-01	1.29320011e-01	4.39453149e-03	1.95950146e+00	2.23284040e+05	3.00000000e+02	2.47005121e+03	5.89639643e+06	1.79530735e+00	1.81937642e-05	3.67784339e-04	4.37161220e-13	4.17036081e-03
5.59065848e-01	1.29320011e-01	4.39453149e-03	1.98924144e+00	2.27499495e+05	3.00000000e+02	2.48077053e+03	5.98598723e+06	1.81240913e+00	1.81976958e-05	3.37068719e-04	4.54035370e-13	3.88897778e-03
5.63143372e-01	1.29320011e-01	4.98046889e-03	1.89514279e+00	2.14012453e+05	3.00000000e+02	2.45634982e+03	5.67285383e+06	1.75969012e+00	1.82039434e-05	2.73242024e-04	2.56845693e-13	3.37489194e-03
5.61781168e-01	1.29320011e-01	4.98046889e-03	1.91827982e+00	2.17173726e+05	3.00000000e+02	2.46881151e+03	5.73532569e+06	1.77463112e+00	1.82065412e-05	2.47520833e-04	2.57034655e-13	3.08939597e-03
5.63143372e-01	1.29320011e-01	5.56640653e-03	1.89320155e+00	2.13181366e+05	3.00000000e+02	2.44367336e+03	5.60949880e+06	1.75361830e+00	1.82104438e-05	1.61139320e-04	1.47721341e-13	1.97927715e-03
5.61781168e-01	1.29320011e-01	5.56640653e-03	1.90748076e+00	2.15171118e+05	3.00000000e+02	2.45035991e+03	5.65542663e+06	1.76263787e+00	1.82103177e-05	1.44343755e-04	1.44403259e-13	1.72056525e-03
5.63143372e-01	1.29320011e-01	6.15234417e-03	1.89043202e+00	2.12229314e+05	3.00000000e+02	2.40647291e+03	5.54515471e+06	1.73898597e+00	1.82100249e-05	8.99893846e-05	7.84600471e-14	9.93703036e-04
5.61781168e-01	1.29320011e-01	6.15234417e-03	1.89659244e+00	2.13164303e+05	3.00000000e+02	2.41163896e+03	5.57423757e+06	1.74368966e+00	1.82099837e-05	7.98425353e-05	7.53830940e-14	8.51069425e-04
5.63143372e-01	1.29320011e-01	6.73828158e-03	1.88712557e+00	2.11217157e+05	3.00000000e+02	2.36003533e+03	5.47613712e+06	1.72063170e+00	1.82098902e-05	4.78286120e-05	3.93954191e-14	4.75358242e-04
5.61781168e-01	1.29320011e-01	6.73828157e-03	1.88623402e+00	2.11252479e+05	3.00000000e+02	2.36598404e+03	5.49228824e+06	1.72239304e+00	1.82098776e-05	4.21682362e-05	3.74413924e-14	4.06753141e-04
5.63143372e-01	1.29320011e-01	7.32421898e-03	1.88387954e+00	2.10251806e+05	3.00000000e+02	2.31218928e+03	5.40924140e+06	1.70163945e+00	1.82098474e-05	2.44148902e-05	1.89106655e-14	2.23059942e-04
5.61781168e-01	1.29320011e-01	7.32421898e-03	1.87713666e+00	2.09556121e+05	3.00000000e+02	2.32002114e+03	5.41611294e+06	1.70146611e+00	1.82098434e-05	2.14647621e-05	1.78567231e-14	1.91155997e-04
5.63143372e-01	1.29320011e-01	7.91015662e-03	1.88110793e+00	2.09429903e+05	3.00000000e+02	2.26917498e+03	5.35139631e+06	1.68449794e+00	1.82098330e-05	1.21735822e-05	8.74193297e-15	1.04185223e-04
5.61781168e-01	1.29320011e-01	7.91015663e-03	1.86974826e+00	2.08173966e+05	3.00000000e+02	2.27969988e+03	5.35256136e+06	1.68329439e+00	1.82098316e-05	1.07108750e-05	8.23622959e-15	8.96220668e-05
5.63143373e-01	1.29320011e-01	8.49609403e-03	1.87922826e+00	2.08841264e+05	3.00000000e+02	2.23717670e+03	5.30823553e+06	1.67174361e+00	1.82098278e-05	6.23602900e-06	4.02148364e-15	5.09003293e-05
5.61781168e-01	1.29320011e-01	8.49609403e-03	1.86469486e+00	2.07222826e+05	3.00000000e+02	2.25098306e+03	5.30792276e+06	1.67039728e+00	1.82098272e-05	5.51190862e-06	3.79851263e-15	4.41050223e-05
5.63143372e-01	1.29320011e-01	9.08203144e-03	1.87867587e+00	2.08535884e+05	3.00000000e+02	2.21679771e+03	5.28033299e+06	1.66386759e+00	1.82098259e-05	3.82122910e-06	2.19682987e-15	3.02802510e-05
5.61781168e-01	1.29320011e-01	9.08203143e-03	1.86209325e+00	2.06634774e+05	3.00000000e+02	2.23061740e+03	5.27334539e+06	1.66166345e+00	1.82098256e-05	3.39356141e-06	2.06755105e-15	2.64207476e-05
5.64508617e-01	1.29320011e-01	2.92968761e-04	1.82333936e+00	2.07301146e+05	3.00000000e+02	2.13997687e+03	5.69438752e+06	1.61910829e+00	1.81133173e-05	2.51915489e-03	1.87067391e-12	2.22762422e-02
5.64508617e-01	1.29320011e-01	8.78906287e-04	1.82335746e+00	2.07469044e+05	3.00000000e+02	2.16537365e+03	5.74209647e+06	1.62917127e+00	1.81080292e-05	2.37067100e-03	1.82981475e-12	2.10070485e-02
5.64508617e-01	1.29320011e-01	1.46484381e-03	1.82767446e+00	2.07647904e+05	3.00000000e+02	2.20357274e+03	5.71599638e+06	1.64430382e+00	1.81203527e-05	2.10041375e-03	1.60359941e-12	1.89200612e-02
5.64508617e-01	1.29320011e-01	2.05078133e-03	1.83363446e+00	2.08035621e+05	3.00000000e+02	2.25820788e+03	5.69696052e+06	1.66577523e+00	1.81366694e-05	1.75507902e-03	1.40640239e-12	1.59270949e-02
5.65876871e-01	1.29320011e-01	2.63671891e-03	1.80082264e+00	2.03201999e+05	3.00000000e+02	2.28424706e+03	5.59665208e+06	1.65992261e+00	1.81407302e-05	1.44297417e-03	1.11370375e-12	1.33935993e-02
5.64508617e-01	1.29320011e-01	2.63671891e-03	1.84041291e+00	2.08387010e+05	3.00000000e+02	2.29579924e+03	5.70280615e+06	1.68296619e+00	1.81336319e-05	1.37847993e-03	1.14467383e-12	1.27661615e-02
5.65876872e-01	1.29320011e-01	3.22265644e-03	1.81211094e+00	2.04336736e+05	3.00000000e+02	2.34844669e+03	5.58621851e+06	1.68602732e+00	1.81657667e-05	1.07922219e-03	8.58415035e-13	1.04478312e-02
5.64508617e-01	1.29320011e-01	3.22265644e-03	1.84858419e+00	2.09222657e+05	3.00000000e+02	2.36918772e+03	5.68446739e+06	1.71035611e+00	1.81663805e-05	1.02387736e-03	9.00297074e-13	9.88180554e-03
5.67248166e-01	1.29320011e-01	3.80859396e-03	1.79978157e+00	2.02053671e+05	3.00000000e+02	2.36784238e+03	5.49090478e+06	1.68596185e+00	1.81791741e-05	8.06648495e-04	5.90403138e-13	8.00425021e-03
5.65876871e-01	1.29320011e-01	3.80859396e-03	1.82480379e+00	2.05448490e+05	3.00000000e+02	2.39273434e+03	5.56197830e+06	1.70624300e+00	1.81823512e-05	7.65149896e-04	6.11515349e-13	7.66927924e-03
5.64508617e-01	1.29320011e-01	3.80859396e-03	1.85699904e+00	2.09817139e+05	3.00000000e+02	2.41580176e+03	5.65263255e+06	1.72928472e+00	1.81846764e-05	7.19545742e-04	6.36130336e-13	7.30810342e-03
5.67248166e-01	1.29320011e-01	4.39453149e-03	1.81533544e+00	2.03743209e+05	3.00000000e+02	2.40129020e+03	5.51156878e+06	1.70457603e+00	1.81852798e-05	5.45619955e-04	4.12394559e-13	5.79322843e-03
5.65876872e-01	1.29320011e-01	4.39453149e-03	1.83742532e+00	2.06667597e+05	3.00000000e+02	2.41396648e+03	5.57014396e+06	1.71954840e+00	1.81840936e-05	5.12784873e-04	4.13741770e-13	5.44228849e-03
5.64508617e-01	1.29320011e-01	4.39453149e-03	1.86452610e+00	2.10254956e+05	3.00000000e+02	2.42461074e+03	5.64000513e+06	1.73618128e+00	1.81821724e-05	4.77011895e-04	4.12456370e-13	5.08354312e-03
5.67248166e-01	1.29320011e-01	4.98046889e-03	1.83200539e+00	2.05518175e+05	3.00000000e+02	2.41899742e+03	5.51176404e+06	1.71776896e+00	1.81949942e-05	3.49533649e-04	2.59823192e-13	4.12170381e-03
5.65876872e-01	1.29320011e-01	4.98046889e-03	1.85007011e+00	2.07960850e+05	3.00000000e+02	2.43281201e+03	5.56012066e+06	1.73085325e+00	1.81980024e-05	3.25505088e-04	2.59648950e-13	3.89901841e-03
5.64508617e-01	1.29320011e-01	4.98046889e-03	1.87172876e+00	2.10868044e+05	3.00000000e+02	2.44503233e+03	5.61471967e+06	1.74502991e+00	1.82010517e-05	2.99673193e-04	2.58361856e-13	3.64713198e-03
5.68622500e-01	1.29320011e-01	5.56640653e-03	1.84040972e+00	2.06091166e+05	3.00000000e+02	2.41619932e+03	5.46843184e+06	1.71951876e+00	1.82075838e-05	2.27660972e-04	1.60173078e-13	2.97187969e-03
5.67248166e-01	1.29320011e-01	5.56640653e-03	1.84991052e+00	2.07386000e+05	3.00000000e+02	2.42554667e+03	5.49585266e+06	1.72714827e+00	1.82090024e-05	2.12879094e-04	1.58110582e-13	2.76862774e-03
5.65876872e-01	1.29320011e-01	5.56640653e-03	1.86315312e+00	2.09159324e+05	3.00000000e+02	2.43342806e+03	5.53000500e+06	1.73599337e+00	1.82104662e-05	1.96336943e-04	1.55445138e-13	2.52803856e-03
5.64508617e-01	1.29320011e-01	5.56640653e-03	1.87816417e+00	2.11148668e+05	3.00000000e+02	2.43901780e+03	5.56756696e+06	1.74496117e+00	1.82105930e-05	1.78785306e-04	1.51806650e-13	2.25303399e-03
5.67248166e-01	1.29320011e-01	6.15234417e-03	1.86846558e+00	2.09175418e+05	3.00000000e+02	2.40209869e+03	5.47261469e+06	1.72726480e+00	1.82101972e-05	1.22712870e-04	8.85677450e-14	1.48969886e-03
5.65876872e-01	1.29320011e-01	6.15234417e-03	1.87610211e+00	2.10223260e+05	3.00000000e+02	2.40404869e+03	5.49637515e+06	1.73149928e+00	1.82101342e-05	1.12040580e-04	8.55639171e-14	1.32285563e-03
5.64508617e-01	1.29320011e-01	6.15234417e-03	1.88376697e+00	2.11281020e+05	3.00000000e+02	2.40497515e+03	5.52073767e+06	1.73537259e+00	1.82100756e-05	1.00920104e-04	8.20772203e-14	1.15375071e-03
5.67248166e-01	1.29320011e-01	6.73828158e-03	1.88641876e+00	2.10887189e+05	3.00000000e+02	2.36187960e+03	5.44514664e+06	1.72097640e+00	1.82099441e-05	6.68876552e-05	4.62184394e-14	7.26181591e-04
5.65876872e-01	1.29320011e-01	6.73828158e-03	1.88824437e+00	2.11183080e+05	3.00000000e+02	2.36012499e+03	5.45642536e+06	1.72117117e+00	1.82099241e-05	6.05325205e-05	4.40613125e-14	6.39071621e-04
5.64508617e-01	1.29320011e-01	6.73828158e-03	1.88844578e+00	2.11285239e+05	3.00000000e+02	2.35892613e+03	5.46630024e+06	1.72082746e+00	1.82099058e-05	5.40549566e-05	4.17141756e-14	5.53894671e-04
5.67248166e-01	1.29320011e-01	7.32421899e-03	1.90283768e+00	2.12384835e+05	3.00000000e+02	2.31470721e+03	5.41013147e+06	1.71110945e+00	1.82098643e-05	3.46878391e-05	2.27368856e-14	3.41990915e-04
5.65876872e-01	1.29320011e-01	7.32421899e-03	1.89915742e+00	2.11983779e+05	3.00000000e+02	2.31110231e+03	5.41160937e+06	1.70812286e+00	1.82098580e-05	3.11870447e-05	2.14779497e-14	2.99976108e-04
5.64508617e-01	1.29320011e-01	7.32421899e-03	1.89235266e+00	2.11209843e+05	3.00000000e+02	2.30977821e+03	5.41032243e+06	1.70457200e+00	1.82098523e-05	2.77022284e-05	2.01685189e-14	2.59723123e-04
5.67248166e-01	1.29320011e-01	7.91015662e-03	1.91684875e+00	2.13610979e+05	3.00000000e+02	2.26847873e+03	5.37370920e+06	1.70016385e+00	1.82098387e-05	1.73804770e-05	1.06410647e-14	1.59018708e-04
5.65876871e-01	1.29320011e-01	7.91015662e-03	1.90839971e+00	2.12620886e+05	3.00000000e+02	2.26433034e+03	5.36837803e+06	1.69486110e+00	1.82098366e-05	1.55682390e-05	9.99168570e-15	1.39361090e-04
5.64508617e-01	1.29320011e-01	7.91015662e-03	1.89555592e+00	2.11111307e+05	3.00000000e+02	2.26427366e+03	5.35956442e+06	1.68912719e+00	1.82098347e-05	1.38093772e-05	9.34712894e-15	1.20883848e-04
5.67248166e-01	1.29320011e-01	8.49609403e-03	1.92689366e+00	2.14417499e+05	3.00000000e+02	2.23030940e+03	5.33937004e+06	1.69021183e+00	1.82098300e-05	8.84402143e-06	4.89687105e-15	7.65678326e-05
5.65876871e-01	1.29320011e-01	8.49609403e-03	1.91507588e+00	2.13026036e+05	3.00000000e+02	2.22678388e+03	5.33081301e+06	1.68368853e+00	1.82098291e-05	7.91573562e-06	4.58245551e-15	6.72110587e-05
5.64508617e-01	1.29320011e-01	8.49609403e-03	1.89791336e+00	2.11011669e+05	3.00000000e+02	2.22900236e+03	5.31887836e+06	1.67696191e+00	1.82098284e-05	7.04095781e-06	4.28912321e-15	5.86193282e-05
5.67248166e-01	1.29320011e-01	9.08203144e-03	1.93319859e+00	2.15137649e+05	3.00000000e+02	2.21723226e+03	5.34179893e+06	1.68800452e+00	1.82098271e-05	5.38136769e-06	2.74074108e-15	4.49498683e-05
5.65876872e-01	1.29320011e-01	9.08203144e-03	1.91966352e+00	2.13463594e+05	3.00000000e+02	2.21000373e+03	5.32291032e+06	1.67934082e+00	1.82098267e-05	4.81205270e-06	2.53599661e-15	3.94941819e-05
5.64508617e-01	1.29320011e-01	9.08203143e-03	1.89999012e+00	2.11077073e+05	3.00000000e+02	2.20972723e+03	5.30027737e+06	1.67060893e+00	1.82098263e-05	4.29300796e-06	2.35513185e-15	3.46214532e-05
5.57712704e-01	1.29320011e-01	1.46484381e-03	2.10503005e+00	2.45459990e+05	3.00000000e+02	2.19485322e+03	6.38871627e+06	1.75871070e+00	1.81456731e-05	1.69534833e-03	2.66532413e-12	1.53164398e-02
5.56362570e-01	1.29320011e-01	1.46484381e-03	2.10155162e+00	2.44757541e+05	3.00000000e+02	2.15794356e+03	6.36190233e+06	1.74207432e+00	1.81492628e-05	1.61927499e-03	2.67056600e-12	1.47308561e-02
5.57712704e-01	1.29320011e-01	2.05078133e-03	2.09197964e+00	2.43510959e+05	3.00000000e+02	2.24187235e+03	6.40540341e+06	1.77316174e+00	1.81330730e-05	1.37378244e-03	2.20407912e-12	1.25464603e-02
5.56362569e-01	1.29320011e-01	2.05078133e-03	2.09430699e+00	2.43335192e+05	3.00000000e+02	2.19134826e+03	6.34977061e+06	1.75317402e+00	1.81420535e-05	1.30857070e-03	2.10192676e-12	1.20494264e-02
5.57712704e-01	1.29320011e-01	2.63671891e-03	2.08101549e+00	2.41413718e+05	3.00000000e+02	2.34181313e+03	6.30302484e+06	1.80411925e+00	1.81670383e-05	1.04318759e-03	1.70343175e-12	1.00191672e-02
5.56362569e-01	1.29320011e-01	2.63671891e-03	2.08532536e+00	2.41893205e+05	3.00000000e+02	2.30510957e+03	6.30564369e+06	1.79171428e+00	1.81676829e-05	9.92513846e-04	1.70988450e-12	9.48517491e-03
5.57712704e-01	1.29320011e-01	3.22265644e-03	2.06298388e+00	2.38454092e+05	3.00000000e+02	2.40120292e+03	6.21852900e+06	1.81713247e+00	1.81849184e-05	7.41697264e-04	1.19172020e-12	7.32241431e-03
5.56362569e-01	1.29320011e-01	3.22265643e-03	2.07293186e+00	2.39738313e+05	3.00000000e+02	2.37336583e+03	6.23695355e+06	1.81080602e+00	1.81860559e-05	7.02844668e-04	1.20745370e-12	7.02441624e-03
5.55015445e-01	1.29320011e-01	3.22265643e-03	2.05455802e+00	2.37060271e+05	3.00000000e+02	2.34088162e+03	6.18151318e+06	1.79032089e+00	1.81866894e-05	6.72561395e-04	1.17167500e-12	6.77143811e-03
5.53671300e-01	1.29320011e-01	3.22265643e-03	2.00354877e+00	2.29929410e+05	3.00000000e+02	2.31777411e+03	6.04839308e+06	1.75917700e+00	1.81870211e-05	6.48298066e-04	1.08749112e-12	6.55180575e-03
5.57712704e-01	1.29320011e-01	3.80859396e-03	2.03997807e+00	2.35021658e+05	3.00000000e+02	2.44728829e+03	6.16995097e+06	1.82438926e+00	1.81833294e-05	4.95104062e-04	7.86633384e-13	5.14936621e-03
5.56362569e-01	1.29320011e-01	3.80859396e-03	2.05493024e+00	2.37086553e+05	3.00000000e+02	2.42097117e+03	6.21007916e+06	1.82124343e+00	1.81828078e-05	4.66472327e-04	7.94041078e-13	4.84801269e-03
5.55015445e-01	1.29320011e-01	3.80859396e-03	2.04869859e+00	2.36073005e+05	3.00000000e+02	2.38769178e+03	6.17825923e+06	1.80572787e+00	1.81849228e-05	4.45057977e-04	7.77013654e-13	4.64540594e-03
5.53671301e-01	1.29320011e-01	3.80859396e-03	2.01353495e+00	2.31061171e+05	3.00000000e+02	2.35820372e+03	6.07279003e+06	1.77882995e+00	1.81874332e-05	4.28897825e-04	7.29963853e-13	4.49980082e-03
5.52330107e-01	1.29320011e-01	3.80859396e-03	1.95268653e+00	2.22656536e+05	3.00000000e+02	2.34412269e+03	5.91276042e+06	1.74630198e+00	1.81895806e-05	4.14657983e-04	6.61969890e-13	4.37016573e-03
5.50991893e-01	1.29320011e-01	3.80859396e-03	1.88361068e+00	2.13404897e+05	3.00000000e+02	2.35397895e+03	5.75250308e+06	1.71851939e+00	1.81918982e-05	3.98455550e-04	5.93858516e-13	4.22545864e-03
5.57712704e-01	1.29320011e-01	4.39453149e-03	2.01637506e+00	2.31373858e+05	3.00000000e+02	2.48396070e+03	6.06882757e+06	1.82559270e+00	1.82007685e-05	3.11788866e-04	4.73306821e-13	3.64054537e-03
5.56362569e-01	1.29320011e-01	4.39453148e-03	2.03680550e+00	2.34273027e+05	3.00000000e+02	2.47456370e+03	6.12791377e+06	1.83111263e+00	1.82030699e-05	2.92279616e-04	4.89750044e-13	3.43144709e-03
5.55015445e-01	1.29320011e-01	4.39453149e-03	2.04205617e+00	2.34976519e+05	3.00000000e+02	2.45164601e+03	6.13836101e+06	1.82479504e+00	1.82047294e-05	2.77919548e-04	4.94086945e-13	3.26507698e-03
5.53671300e-01	1.29320011e-01	4.39453149e-03	2.02313658e+00	2.32272480e+05	3.00000000e+02	2.42216353e+03	6.08142866e+06	1.80524731e+00	1.82059448e-05	2.67369579e-04	4.78439861e-13	3.13301647e-03
5.52330107e-01	1.29320011e-01	4.39453149e-03	1.97721802e+00	2.25860193e+05	3.00000000e+02	2.39765369e+03	5.95558588e+06	1.77549043e+00	1.82069739e-05	2.58388011e-04	4.42672090e-13	3.01356701e-03
5.50991893e-01	1.29320011e-01	4.39453149e-03	1.91410473e+00	2.17245351e+05	3.00000000e+02	2.39020026e+03	5.79556793e+06	1.74409878e+00	1.82080950e-05	2.48185050e-04	3.96521354e-13	2.87476849e-03
5.49656689e-01	1.29320011e-01	4.39453148e-03	1.85525725e+00	2.09388241e+05	3.00000000e+02	2.40003785e+03	5.65737521e+06	1.72047887e+00	1.82094726e-05	2.34746589e-04	3.53495619e-13	2.68911079e-03
5.48324435e-01	1.29320011e-01	4.39453149e-03	1.81672541e+00	2.04241692e+05	3.00000000e+02	2.41096616e+03	5.56237026e+06	1.70626281e+00	1.82108356e-05	2.18160219e-04	3.20140219e-13	2.45114625e-03
5.60422003e-01	1.29320011e-01	4.98046889e-03	1.94106802e+00	2.20379491e+05	3.00000000e+02	2.48280369e+03	5.80594492e+06	1.78997456e+00	1.82087572e-05	2.23868114e-04	2.60305930e-13	2.79949674e-03
5.59065848e-01	1.29320011e-01	4.98046889e-03	1.96517050e+00	2.23836726e+05	3.00000000e+02	2.49622358e+03	5.88631375e+06	1.80573645e+00	1.82105512e-05	2.03386174e-04	2.67472350e-13	2.51784181e-03
5.57712704e-01	1.29320011e-01	4.98046889e-03	1.99129819e+00	2.27590662e+05	3.00000000e+02	2.50388891e+03	5.97368897e+06	1.82048194e+00	1.82106270e-05	1.86634687e-04	2.77798543e-13	2.25320605e-03
5.56362569e-01	1.29320011e-01	4.98046889e-03	2.01680085e+00	2.31241045e+05	3.00000000e+02	2.50045311e+03	6.05510100e+06	1.83085668e+00	1.82105102e-05	1.73646082e-04	2.88861498e-13	2.04226785e-03
5.55015445e-01	1.29320011e-01	4.98046889e-03	2.03391508e+00	2.33631544e+05	3.00000000e+02	2.48238556e+03	6.10238456e+06	1.83196202e+00	1.82104282e-05	1.63973821e-04	2.95580807e-13	1.88102467e-03
5.53671301e-01	1.29320011e-01	4.98046889e-03	2.03212552e+00	2.33279835e+05	3.00000000e+02	2.45092468e+03	6.08774188e+06	1.81952106e+00	1.82103695e-05	1.56796326e-04	2.91157160e-13	1.75604845e-03
5.52330107e-01	1.29320011e-01	4.98046889e-03	2.00288072e+00	2.29074657e+05	3.00000000e+02	2.41602784e+03	5.99635592e+06	1.79347975e+00	1.82103221e-05	1.50793122e-04	2.71749419e-13	1.64936162e-03
5.50991893e-01	1.29320011e-01	4.98046889e-03	1.94806716e+00	2.21412731e+05	3.00000000e+02	2.39168277e+03	5.84157036e+06	1.75983865e+00	1.82102746e-05	1.44256965e-04	2.41070717e-13	1.53975252e-03
5.49656689e-01	1.29320011e-01	4.98046889e-03	1.88520217e+00	2.12878125e+05	3.00000000e+02	2.38802161e+03	5.68228687e+06	1.72989008e+00	1.82102195e-05	1.35757369e-04	2.08686992e-13	1.41092823e-03
5.48324436e-01	1.29320011e-01	4.98046889e-03	1.83660981e+00	2.06362337e+05	3.00000000e+02	2.39327704e+03	5.56183162e+06	1.70933357e+00	1.82101579e-05	1.25076912e-04	1.82127263e-13	1.26156601e-03
5.60422003e-01	1.29320011e-01	5.56640653e-03	1.92260256e+00	2.17356624e+05	3.00000000e+02	2.46093142e+03	5.71174645e+06	1.77343383e+00	1.82102170e-05	1.29238278e-04	1.43004688e-13	1.48952245e-03
5.59065848e-01	1.29320011e-01	5.56640653e-03	1.94185328e+00	2.20178834e+05	3.00000000e+02	2.47460952e+03	5.78576236e+06	1.78724395e+00	1.82101410e-05	1.16357083e-04	1.44510552e-13	1.29540851e-03
5.57712704e-01	1.29320011e-01	5.56640653e-03	1.96737351e+00	2.23896358e+05	3.00000000e+02	2.48728500e+03	5.87816310e+06	1.80355665e+00	1.82100858e-05	1.05874492e-04	1.49175607e-13	1.14132648e-03
5.56362569e-01	1.29320011e-01	5.56640653e-03	1.99773706e+00	2.28258802e+05	3.00000000e+02	2.49195444e+03	5.97791205e+06	1.81913004e+00	1.82100469e-05	9.76722650e-05	1.55919215e-13	1.02385477e-03
5.55015445e-01	1.29320011e-01	5.56640653e-03	2.02577916e+00	2.32203495e+05	3.00000000e+02	2.48126431e+03	6.05819115e+06	1.82792242e+00	1.82100191e-05	9.13931546e-05	1.61701679e-13	9.33360084e-04
5.53671301e-01	1.29320011e-01	5.56640653e-03	2.04001329e+00	2.34085069e+05	3.00000000e+02	2.45242266e+03	6.08539552e+06	1.82364306e+00	1.82099988e-05	8.65589058e-05	1.62058117e-13	8.62532332e-04
5.52330107e-01	1.29320011e-01	5.56640653e-03	2.02744206e+00	2.32112547e+05	3.00000000e+02	2.41144913e+03	6.02894670e+06	1.80276595e+00	1.82099824e-05	8.24798777e-05	1.53028101e-13	8.02333564e-04
5.50991893e-01	1.29320011e-01	5.56640653e-03	1.98261375e+00	2.25693552e+05	3.00000000e+02	2.37472788e+03	5.88820500e+06	1.76910018e+00	1.82099667e-05	7.82682964e-05	1.35009003e-13	7.42603096e-04
5.49656689e-01	1.29320011e-01	5.56640653e-03	1.91701555e+00	2.16608431e+05	3.00000000e+02	2.35775735e+03	5.70529453e+06	1.73336184e+00	1.82099493e-05	7.31132674e-05	1.13680452e-13	6.75039937e-04
5.48324435e-01	1.29320011e-01	5.56640653e-03	1.85685810e+00	2.08500661e+05	3.00000000e+02	2.35932213e+03	5.55264454e+06	1.70651575e+00	1.82099300e-05	6.67491417e-05	9.54712640e-14	5.97778966e-04
5.60422003e-01	1.29320011e-01	6.15234417e-03	1.90531043e+00	2.14514411e+05	3.00000000e+02	2.42268580e+03	5.61747798e+06	1.75169390e+00	1.82099519e-05	7.09130387e-05	7.35950740e-14	7.30723427e-04
5.59065848e-01	1.29320011e-01	6.15234417e-03	1.92091510e+00	2.16859968e+05	3.00000000e+02	2.43911810e+03	5.68488798e+06	1.76480962e+00	1.82099282e-05	6.33935733e-05	7.37046821e-14	6.33205519e-04