VARIABLES ="X" "Y" "Z" "rho" "press" "temp" "tau_wall" "qdot" "yplus" "muLam" "ZMean" "ZVar" "CMean" 
Zone T ="wall" I = 7342 , F = point
4.93749917e-01	1.19520001e-01	9.08203144e-03	1.42679026e+00	1.56800130e+05	3.00000000e+02	1.94846132e+03	3.80449953e+06	1.80098622e+00	1.82098328e-05	1.14313922e-05	2.74173854e-16	1.24567953e-04
4.92541760e-01	1.19520001e-01	9.08203143e-03	1.47343742e+00	1.62776016e+05	3.00000000e+02	1.96206682e+03	3.89886307e+06	1.83656878e+00	1.82098317e-05	1.03744701e-05	2.58530358e-16	1.12267377e-04
4.91336287e-01	1.19520001e-01	9.08203144e-03	1.52206941e+00	1.68962935e+05	3.00000000e+02	1.96513797e+03	3.98646102e+06	1.86809186e+00	1.82098307e-05	9.38278942e-06	2.31807010e-16	1.00777682e-04
4.90133480e-01	1.19520001e-01	9.08203144e-03	1.56904740e+00	1.74872495e+05	3.00000000e+02	1.95782194e+03	4.05896584e+06	1.89316786e+00	1.82098299e-05	8.45484437e-06	1.90683198e-16	9.00621957e-05
4.88933340e-01	1.19520001e-01	9.08203144e-03	1.61134405e+00	1.80103319e+05	3.00000000e+02	1.94267199e+03	4.11152068e+06	1.91107792e+00	1.82098291e-05	7.59242210e-06	1.35564791e-16	8.01258652e-05
4.87735882e-01	1.19520001e-01	9.08203143e-03	1.64690659e+00	1.84429062e+05	3.00000000e+02	1.92351002e+03	4.14644885e+06	1.92249953e+00	1.82098284e-05	6.79941418e-06	7.15111722e-17	7.10030874e-05
4.86541077e-01	1.19520001e-01	9.08203144e-03	1.67350481e+00	1.87617002e+05	3.00000000e+02	1.90377489e+03	4.16697845e+06	1.92799466e+00	1.82098278e-05	6.06971950e-06	5.79705915e-18	6.26171946e-05
4.93749916e-01	1.19520001e-01	8.49609403e-03	1.41627483e+00	1.56783449e+05	3.00000000e+02	2.01042614e+03	3.93329373e+06	1.82264009e+00	1.82098888e-05	4.43640998e-05	2.17917480e-15	5.23364973e-04
4.92541761e-01	1.19520001e-01	8.49609403e-03	1.46012022e+00	1.62433958e+05	3.00000000e+02	2.02182676e+03	4.02276688e+06	1.85587812e+00	1.82098853e-05	4.28952996e-05	2.21437787e-15	5.04711056e-04
4.91336286e-01	1.19520001e-01	8.49609403e-03	1.50551565e+00	1.68256171e+05	3.00000000e+02	2.02436731e+03	4.10687886e+06	1.88569107e+00	1.82098822e-05	4.15205733e-05	2.21328819e-15	4.87410909e-04
4.90133479e-01	1.19520001e-01	8.49609403e-03	1.54971320e+00	1.73863966e+05	3.00000000e+02	2.01690140e+03	4.17764016e+06	1.90963921e+00	1.82098791e-05	4.01248752e-05	2.14437183e-15	4.70027472e-04
4.88933340e-01	1.19520001e-01	8.49609403e-03	1.58913126e+00	1.78773212e+05	3.00000000e+02	2.00156879e+03	4.22796704e+06	1.92640922e+00	1.82098757e-05	3.85892266e-05	1.97584051e-15	4.51072678e-04
4.87735882e-01	1.19520001e-01	8.49609403e-03	1.62115038e+00	1.82708372e+05	3.00000000e+02	1.98374662e+03	4.26177340e+06	1.93703844e+00	1.82098721e-05	3.68601140e-05	1.71257969e-15	4.29843433e-04
4.86541077e-01	1.19520001e-01	8.49609403e-03	1.64404433e+00	1.85490534e+05	3.00000000e+02	1.96660654e+03	4.28205986e+06	1.94222297e+00	1.82098680e-05	3.48334952e-05	1.33308422e-15	4.05010132e-04
4.93749917e-01	1.19520001e-01	7.91015663e-03	1.40420758e+00	1.56585272e+05	3.00000000e+02	2.06188392e+03	4.05481324e+06	1.83787982e+00	1.82104651e-05	1.60829955e-04	1.90020302e-14	2.06391719e-03
4.92541761e-01	1.19520001e-01	7.91015663e-03	1.44418240e+00	1.61822459e+05	3.00000000e+02	2.07212112e+03	4.14316345e+06	1.86847623e+00	1.82104803e-05	1.63142454e-04	2.06576042e-14	2.08606668e-03
4.91336286e-01	1.19520001e-01	7.91015662e-03	1.48479544e+00	1.67124006e+05	3.00000000e+02	2.07572551e+03	4.22586922e+06	1.89621148e+00	1.82105007e-05	1.66207276e-04	2.21459031e-14	2.11511550e-03
4.90133480e-01	1.19520001e-01	7.91015662e-03	1.52509040e+00	1.72322787e+05	3.00000000e+02	2.07006820e+03	4.29698052e+06	1.91914651e+00	1.82105211e-05	1.69384965e-04	2.30954246e-14	2.14166610e-03
4.88933340e-01	1.19520001e-01	7.91015662e-03	1.56095603e+00	1.76889390e+05	3.00000000e+02	2.05748183e+03	4.35088343e+06	1.93566893e+00	1.82105325e-05	1.71532724e-04	2.31584438e-14	2.15049264e-03
4.87735883e-01	1.19520001e-01	7.91015662e-03	1.58840254e+00	1.80384253e+05	3.00000000e+02	2.04493002e+03	4.39069012e+06	1.94664778e+00	1.82105272e-05	1.71669536e-04	2.23089649e-14	2.12977876e-03
4.86541077e-01	1.19520001e-01	7.91015663e-03	1.60720933e+00	1.82776333e+05	3.00000000e+02	2.03357219e+03	4.41725007e+06	1.95269577e+00	1.82104979e-05	1.68726646e-04	2.04807843e-14	2.06826707e-03
4.92541760e-01	1.19520001e-01	7.32421899e-03	1.43040135e+00	1.60953175e+05	3.00000000e+02	2.04665746e+03	4.21060169e+06	1.85072390e+00	1.81844550e-05	5.24798981e-04	1.34396473e-13	5.65232703e-03
4.91336286e-01	1.19520001e-01	7.32421899e-03	1.46531032e+00	1.65441615e+05	3.00000000e+02	2.04362690e+03	4.26994712e+06	1.87168687e+00	1.81853976e-05	5.53994526e-04	1.51270551e-13	5.92401324e-03
4.90133480e-01	1.19520001e-01	7.32421899e-03	1.50009774e+00	1.69855353e+05	3.00000000e+02	2.03506544e+03	4.31969503e+06	1.88973805e+00	1.81860234e-05	5.85426751e-04	1.66512632e-13	6.20641973e-03
4.88933340e-01	1.19520001e-01	7.32421899e-03	1.53272989e+00	1.73946338e+05	3.00000000e+02	2.01992317e+03	4.35925814e+06	1.90303712e+00	1.81862586e-05	6.13592418e-04	1.76930556e-13	6.45116150e-03
4.87735883e-01	1.19520001e-01	7.32421899e-03	1.55536454e+00	1.76811938e+05	3.00000000e+02	2.00804157e+03	4.38888117e+06	1.91138898e+00	1.81862750e-05	6.31691997e-04	1.79706495e-13	6.59973808e-03
4.86541078e-01	1.19520001e-01	7.32421899e-03	1.57015929e+00	1.78673930e+05	3.00000000e+02	1.99941948e+03	4.40738980e+06	1.91632487e+00	1.81863298e-05	6.35550713e-04	1.72666665e-13	6.61556386e-03
4.92541760e-01	1.19520001e-01	6.73828157e-03	1.41852037e+00	1.59547427e+05	3.00000000e+02	1.92139549e+03	4.16391913e+06	1.79008348e+00	1.81402502e-05	1.44782865e-03	5.93865986e-13	1.37481153e-02
4.91336286e-01	1.19520001e-01	6.73828158e-03	1.44841234e+00	1.63105977e+05	3.00000000e+02	1.91835987e+03	4.16806792e+06	1.80688485e+00	1.81455884e-05	1.56601082e-03	7.03207446e-13	1.47255977e-02
4.90133480e-01	1.19520001e-01	6.73828157e-03	1.47621193e+00	1.66664703e+05	3.00000000e+02	1.91119519e+03	4.21227476e+06	1.82147841e+00	1.81381602e-05	1.69072951e-03	8.13309108e-13	1.57783678e-02
4.88933340e-01	1.19520001e-01	6.73828158e-03	1.50254740e+00	1.70400261e+05	3.00000000e+02	1.88021380e+03	4.30838583e+06	1.82455428e+00	1.81197126e-05	1.81073056e-03	8.74680491e-13	1.67855703e-02
4.87735883e-01	1.19520001e-01	6.73828158e-03	1.51634690e+00	1.72588739e+05	3.00000000e+02	1.87018843e+03	4.37128536e+06	1.82814631e+00	1.81184650e-05	1.89547761e-03	9.26326651e-13	1.75192493e-02
4.86541078e-01	1.19520001e-01	6.73828158e-03	1.52749988e+00	1.73822190e+05	3.00000000e+02	1.87060511e+03	4.35990472e+06	1.83475751e+00	1.81214673e-05	1.93186129e-03	9.25886491e-13	1.77845736e-02
4.92541761e-01	1.19520001e-01	6.15234417e-03	1.40388374e+00	1.57913230e+05	3.00000000e+02	1.78282148e+03	4.05993462e+06	1.72226979e+00	1.80679426e-05	3.51026671e-03	2.16013943e-12	3.08572187e-02
4.91336286e-01	1.19520001e-01	6.15234417e-03	1.41994935e+00	1.61167232e+05	3.00000000e+02	1.74411959e+03	4.21574694e+06	1.71409444e+00	1.80584385e-05	3.85066996e-03	2.49884767e-12	3.36803338e-02
4.90133480e-01	1.19520001e-01	6.15234417e-03	1.43334474e+00	1.63146658e+05	3.00000000e+02	1.70407051e+03	4.25903650e+06	1.70365430e+00	1.80438007e-05	4.20281259e-03	2.68460368e-12	3.65394739e-02
4.88933340e-01	1.19520001e-01	6.15234417e-03	1.46115223e+00	1.66662620e+05	3.00000000e+02	1.69290692e+03	4.29442789e+06	1.71579059e+00	1.80297778e-05	4.53848456e-03	3.05204607e-12	3.92138294e-02
4.87735882e-01	1.19520001e-01	6.15234417e-03	1.46861184e+00	1.67986249e+05	3.00000000e+02	1.69249370e+03	4.31629399e+06	1.71939941e+00	1.80356026e-05	4.79088449e-03	3.35745068e-12	4.13125522e-02
4.86541077e-01	1.19520001e-01	6.15234417e-03	1.47501360e+00	1.69156281e+05	3.00000000e+02	1.69448993e+03	4.36602123e+06	1.72442033e+00	1.80328661e-05	4.89850736e-03	3.37516824e-12	4.21583044e-02
4.92541761e-01	1.19520001e-01	5.56640653e-03	1.35607340e+00	1.55915850e+05	3.00000000e+02	1.59128932e+03	4.24965480e+06	1.60606752e+00	1.79904803e-05	7.52528099e-03	5.42774626e-12	6.28936348e-02
4.91336287e-01	1.19520001e-01	5.56640653e-03	1.36945484e+00	1.58568922e+05	3.00000000e+02	1.56037514e+03	4.34391116e+06	1.59897085e+00	1.79820089e-05	8.31047950e-03	6.30907385e-12	6.90566123e-02
4.90133479e-01	1.19520001e-01	5.56640653e-03	1.37802366e+00	1.60485473e+05	3.00000000e+02	1.53678255e+03	4.41140060e+06	1.59233417e+00	1.79759030e-05	9.08965543e-03	7.00152595e-12	7.51243812e-02
4.88933340e-01	1.19520001e-01	5.56640653e-03	1.38818983e+00	1.62618472e+05	3.00000000e+02	1.52103858e+03	4.48897095e+06	1.59068598e+00	1.79680305e-05	9.76689921e-03	7.65221901e-12	8.04051967e-02
4.87735882e-01	1.19520001e-01	5.56640653e-03	1.39196014e+00	1.63814757e+05	3.00000000e+02	1.51821124e+03	4.55358482e+06	1.59170732e+00	1.79641500e-05	1.02886255e-02	8.17741159e-12	8.44494929e-02
4.86541077e-01	1.19520001e-01	5.56640653e-03	1.39651635e+00	1.64821138e+05	3.00000000e+02	1.52809803e+03	4.60348420e+06	1.59968233e+00	1.79620234e-05	1.04884701e-02	8.44698854e-12	8.60420365e-02
4.91336286e-01	1.19520001e-01	4.98046889e-03	1.28969206e+00	1.55995418e+05	3.00000000e+02	1.41982275e+03	4.71944775e+06	1.48251619e+00	1.79535782e-05	1.55668445e-02	1.13750146e-11	1.22068862e-01
4.90133480e-01	1.19520001e-01	4.98046889e-03	1.28946790e+00	1.57529504e+05	3.00000000e+02	1.40854972e+03	4.84414453e+06	1.47673622e+00	1.79505936e-05	1.68302788e-02	1.24147804e-11	1.30796303e-01
4.88933340e-01	1.19520001e-01	4.98046889e-03	1.28973699e+00	1.59035949e+05	3.00000000e+02	1.40816310e+03	4.97441651e+06	1.47692673e+00	1.79476872e-05	1.78750123e-02	1.35682180e-11	1.37857114e-01
4.87735882e-01	1.19520001e-01	4.98046889e-03	1.28809846e+00	1.59980609e+05	3.00000000e+02	1.41922881e+03	5.08504333e+06	1.48191329e+00	1.79460275e-05	1.86090754e-02	1.47509781e-11	1.42750679e-01
4.86541077e-01	1.19520001e-01	4.98046889e-03	1.29202687e+00	1.61147301e+05	3.00000000e+02	1.44095010e+03	5.16870985e+06	1.49563542e+00	1.79442325e-05	1.88776854e-02	1.59326968e-11	1.44631508e-01
4.91336286e-01	1.19520001e-01	4.39453149e-03	1.18283311e+00	1.53470699e+05	3.00000000e+02	1.37800092e+03	5.49271098e+06	1.39997199e+00	1.79373189e-05	2.50229505e-02	1.86320824e-11	1.79077642e-01
4.90133480e-01	1.19520001e-01	4.39453148e-03	1.17644288e+00	1.54695052e+05	3.00000000e+02	1.38112457e+03	5.66897401e+06	1.39832805e+00	1.79301187e-05	2.65620382e-02	2.06748861e-11	1.86684675e-01
4.88933340e-01	1.19520001e-01	4.39453149e-03	1.17132141e+00	1.55720853e+05	3.00000000e+02	1.39436961e+03	5.82211214e+06	1.40246653e+00	1.79235848e-05	2.77598130e-02	2.29443666e-11	1.92181961e-01
4.87735883e-01	1.19520001e-01	4.39453149e-03	1.16899740e+00	1.56628435e+05	3.00000000e+02	1.41446422e+03	5.94046711e+06	1.41152880e+00	1.79185720e-05	2.85489826e-02	2.52715557e-11	1.95621075e-01
4.86541078e-01	1.19520001e-01	4.39453149e-03	1.17502740e+00	1.58111907e+05	3.00000000e+02	1.43787995e+03	6.02490620e+06	1.42699595e+00	1.79164910e-05	2.88489659e-02	2.75604492e-11	1.96880228e-01
4.85348896e-01	1.19520001e-01	4.39453149e-03	1.19160877e+00	1.60570653e+05	3.00000000e+02	1.45985431e+03	6.09172238e+06	1.44788077e+00	1.79175733e-05	2.86967928e-02	2.97948773e-11	1.96253471e-01
4.91336287e-01	1.19520001e-01	3.80859396e-03	1.07112021e+00	1.50838286e+05	3.00000000e+02	1.39552751e+03	6.36137694e+06	1.34700670e+00	1.78529067e-05	3.54356379e-02	3.27677685e-11	2.19240170e-01
4.90133480e-01	1.19520001e-01	3.80859396e-03	1.06341992e+00	1.51810629e+05	3.00000000e+02	1.40208754e+03	6.50444672e+06	1.34682108e+00	1.78328370e-05	3.70593356e-02	3.69463757e-11	2.23141704e-01
4.88933340e-01	1.19520001e-01	3.80859396e-03	1.05752813e+00	1.52592475e+05	3.00000000e+02	1.41985961e+03	6.62226441e+06	1.35274926e+00	1.78172940e-05	3.82825639e-02	4.13317527e-11	2.25658919e-01
4.87735883e-01	1.19520001e-01	3.80859396e-03	1.05652177e+00	1.53627801e+05	3.00000000e+02	1.44488286e+03	6.72424703e+06	1.36475497e+00	1.78070199e-05	3.90778280e-02	4.58279171e-11	2.27113044e-01
4.86541078e-01	1.19520001e-01	3.80859396e-03	1.06460203e+00	1.55560174e+05	3.00000000e+02	1.47102185e+03	6.82458149e+06	1.38263166e+00	1.78027501e-05	3.94132658e-02	5.00342301e-11	2.27673658e-01
4.85348895e-01	1.19520001e-01	3.80859396e-03	1.08335609e+00	1.58649175e+05	3.00000000e+02	1.49246404e+03	6.92440703e+06	1.40481420e+00	1.78036500e-05	3.93289156e-02	5.37245399e-11	2.27564559e-01
4.91336287e-01	1.19520001e-01	3.22265644e-03	9.62033028e-01	1.48155072e+05	3.00000000e+02	1.41201075e+03	6.92320336e+06	1.29591770e+00	1.76899643e-05	4.72218659e-02	6.54325310e-11	2.36727032e-01
4.90133479e-01	1.19520001e-01	3.22265643e-03	9.53589535e-01	1.49000994e+05	3.00000000e+02	1.41799493e+03	7.00984519e+06	1.29496219e+00	1.76624675e-05	4.90736567e-02	7.43754005e-11	2.37854150e-01
4.88933340e-01	1.19520001e-01	3.22265644e-03	9.47968931e-01	1.49779616e+05	3.00000000e+02	1.43699932e+03	7.08959487e+06	1.30126461e+00	1.76420927e-05	5.04330446e-02	8.30942824e-11	2.38502816e-01
4.87735882e-01	1.19520001e-01	3.22265644e-03	9.48572452e-01	1.51084645e+05	3.00000000e+02	1.46403772e+03	7.18273360e+06	1.31488941e+00	1.76283857e-05	5.12989843e-02	9.11673182e-11	2.38892402e-01
4.86541078e-01	1.19520001e-01	3.22265643e-03	9.59157200e-01	1.53511724e+05	3.00000000e+02	1.48977188e+03	7.28926648e+06	1.33424915e+00	1.76221232e-05	5.16582523e-02	9.80975196e-11	2.39090302e-01
4.85348895e-01	1.19520001e-01	3.22265643e-03	9.79957328e-01	1.57157297e+05	3.00000000e+02	1.50883794e+03	7.40695896e+06	1.35723807e+00	1.76221638e-05	5.15658553e-02	1.03557006e-10	2.39150778e-01
4.91336287e-01	1.19520001e-01	2.63671891e-03	8.47337283e-01	1.45671030e+05	3.00000000e+02	1.39803513e+03	7.11783059e+06	1.22766473e+00	1.74380455e-05	6.30160417e-02	1.37058762e-10	2.41021205e-01
4.90133480e-01	1.19520001e-01	2.63671891e-03	8.38066958e-01	1.46468180e+05	3.00000000e+02	1.39647613e+03	7.14400550e+06	1.22309042e+00	1.73975437e-05	6.54279415e-02	1.51789881e-10	2.40995116e-01
4.88933340e-01	1.19520001e-01	2.63671891e-03	8.33530538e-01	1.47420403e+05	3.00000000e+02	1.40755190e+03	7.18941441e+06	1.22657947e+00	1.73695137e-05	6.70986339e-02	1.64939557e-10	2.40925030e-01
4.87735883e-01	1.19520001e-01	2.63671891e-03	8.35944636e-01	1.49040788e+05	3.00000000e+02	1.42909663e+03	7.26620211e+06	1.23899879e+00	1.73515812e-05	6.81031277e-02	1.77412633e-10	2.40885373e-01
4.86541078e-01	1.19520001e-01	2.63671891e-03	8.48096434e-01	1.51910431e+05	3.00000000e+02	1.45177718e+03	7.37695466e+06	1.25839916e+00	1.73438123e-05	6.84833111e-02	1.89585121e-10	2.40902482e-01
4.85348895e-01	1.19520001e-01	2.63671891e-03	8.69446191e-01	1.55998248e+05	3.00000000e+02	1.46848610e+03	7.51399726e+06	1.28139821e+00	1.73445304e-05	6.83314894e-02	2.00307356e-10	2.40973862e-01
4.92541760e-01	1.19520001e-01	2.05078133e-03	7.45887735e-01	1.44816366e+05	3.00000000e+02	1.32088042e+03	6.82386518e+06	1.14388410e+00	1.70677725e-05	8.33347288e-02	2.29552720e-10	2.39275999e-01
4.91336287e-01	1.19520001e-01	2.05078133e-03	7.27184484e-01	1.43319217e+05	3.00000000e+02	1.31360759e+03	6.57129926e+06	1.12987665e+00	1.70143153e-05	8.66254104e-02	2.43402462e-10	2.38589797e-01
4.90133479e-01	1.19520001e-01	2.05078133e-03	7.17442259e-01	1.44052911e+05	3.00000000e+02	1.28954431e+03	6.76329145e+06	1.11684447e+00	1.69398397e-05	8.96897503e-02	2.42259169e-10	2.38131176e-01
4.88933340e-01	1.19520001e-01	2.05078133e-03	7.14148210e-01	1.45366030e+05	3.00000000e+02	1.28362077e+03	6.97237077e+06	1.11503917e+00	1.68893449e-05	9.16375868e-02	2.45237113e-10	2.37976032e-01
4.87735882e-01	1.19520001e-01	2.05078133e-03	7.17907433e-01	1.47425235e+05	3.00000000e+02	1.30012893e+03	7.08934877e+06	1.12655403e+00	1.68680856e-05	9.27285112e-02	2.55969111e-10	2.37846232e-01
4.86541078e-01	1.19520001e-01	2.05078133e-03	7.30447651e-01	1.50669353e+05	3.00000000e+02	1.32693507e+03	7.17415085e+06	1.14833379e+00	1.68632635e-05	9.31216426e-02	2.75698133e-10	2.37783594e-01
4.85348895e-01	1.19520001e-01	2.05078133e-03	7.50400390e-01	1.55118771e+05	3.00000000e+02	1.34645728e+03	7.33972927e+06	1.17222052e+00	1.68664577e-05	9.29430394e-02	2.98167676e-10	2.37784537e-01
4.92541760e-01	1.19520001e-01	1.46484381e-03	6.24640282e-01	1.44421777e+05	3.00000000e+02	1.14029330e+03	6.21514794e+06	1.00831209e+00	1.64633682e-05	1.16107431e-01	2.57158380e-10	2.32423159e-01
4.91336286e-01	1.19520001e-01	1.46484381e-03	6.07569562e-01	1.41327896e+05	3.00000000e+02	1.13917922e+03	5.64344533e+06	9.97953370e-01	1.63973689e-05	1.19566021e-01	2.52313721e-10	2.31240648e-01
4.90133480e-01	1.19520001e-01	1.46484381e-03	5.98867644e-01	1.42268764e+05	3.00000000e+02	1.11524478e+03	6.09392824e+06	9.83880983e-01	1.63379793e-05	1.22388892e-01	2.20705932e-10	2.30615518e-01
4.88933340e-01	1.19520001e-01	1.46484381e-03	6.00363627e-01	1.44148896e+05	3.00000000e+02	1.13160820e+03	6.12338696e+06	9.94041740e-01	1.63095130e-05	1.24072523e-01	2.29908187e-10	2.30327812e-01
4.87735882e-01	1.19520001e-01	1.46484381e-03	6.05516568e-01	1.46442228e+05	3.00000000e+02	1.16231632e+03	6.16074465e+06	1.01249028e+00	1.62976395e-05	1.25053953e-01	2.47026943e-10	2.30055327e-01
4.86541078e-01	1.19520001e-01	1.46484381e-03	6.16511875e-01	1.49836319e+05	3.00000000e+02	1.19091526e+03	6.25197701e+06	1.03436428e+00	1.62940117e-05	1.25514638e-01	2.69014992e-10	2.29866226e-01
4.85348896e-01	1.19520001e-01	1.46484381e-03	6.33581652e-01	1.54484207e+05	3.00000000e+02	1.20930197e+03	6.40087348e+06	1.05649200e+00	1.62964440e-05	1.25524596e-01	2.94803708e-10	2.29780427e-01
4.92541761e-01	1.19520001e-01	8.78906287e-04	5.28202120e-01	1.43224156e+05	3.00000000e+02	1.00555065e+03	5.14710388e+06	9.02477290e-01	1.58838636e-05	1.50627992e-01	1.37564267e-10	2.21572903e-01
4.91336287e-01	1.19520001e-01	8.78906287e-04	5.14902184e-01	1.40619239e+05	3.00000000e+02	1.04584055e+03	4.71300903e+06	9.09866929e-01	1.58638140e-05	1.53090091e-01	1.41407480e-10	2.20088865e-01
4.90133479e-01	1.19520001e-01	8.78906286e-04	5.12845237e-01	1.41512466e+05	3.00000000e+02	1.05100432e+03	4.88720784e+06	9.11977927e-01	1.58343949e-05	1.54648020e-01	1.38982253e-10	2.18857074e-01
4.88933340e-01	1.19520001e-01	8.78906287e-04	5.16692628e-01	1.43307835e+05	3.00000000e+02	1.05924043e+03	4.78664051e+06	9.19771766e-01	1.58206280e-05	1.55859359e-01	1.44143959e-10	2.17567323e-01
4.87735882e-01	1.19520001e-01	8.78906286e-04	5.22245380e-01	1.45703372e+05	3.00000000e+02	1.08065111e+03	4.84922813e+06	9.34879323e-01	1.58057419e-05	1.56783073e-01	1.54500406e-10	2.16235327e-01
4.86541078e-01	1.19520001e-01	8.78906286e-04	5.32131983e-01	1.49198782e+05	3.00000000e+02	1.10510165e+03	4.92637227e+06	9.54992169e-01	1.57943359e-05	1.57471825e-01	1.70490719e-10	2.14917918e-01
4.85348896e-01	1.19520001e-01	8.78906287e-04	5.46798454e-01	1.53991155e+05	3.00000000e+02	1.12474716e+03	5.02593268e+06	9.77143300e-01	1.57860407e-05	1.57970750e-01	1.92987025e-10	2.13610826e-01
4.92541761e-01	1.19520001e-01	2.92968761e-04	4.79745783e-01	1.42656231e+05	3.00000000e+02	9.70934220e+02	4.04210896e+06	8.66958290e-01	1.54843389e-05	1.74418137e-01	5.68275328e-11	2.01518791e-01
4.91336287e-01	1.19520001e-01	2.92968761e-04	4.67446955e-01	1.39899273e+05	3.00000000e+02	1.01858284e+03	4.04127167e+06	8.78027242e-01	1.54577664e-05	1.75813422e-01	6.29418955e-11	1.97456790e-01
4.90133479e-01	1.19520001e-01	2.92968761e-04	4.68653340e-01	1.41039033e+05	3.00000000e+02	1.02839863e+03	4.03255568e+06	8.84755818e-01	1.54338246e-05	1.77039337e-01	6.61823328e-11	1.93358136e-01
4.88933340e-01	1.19520001e-01	2.92968761e-04	4.72393113e-01	1.42969649e+05	3.00000000e+02	1.03649350e+03	4.03852355e+06	8.93156706e-01	1.54098280e-05	1.78237909e-01	7.12394343e-11	1.88799295e-01
4.87735883e-01	1.19520001e-01	2.92968761e-04	4.77880265e-01	1.45463070e+05	3.00000000e+02	1.05474876e+03	4.05364721e+06	9.07633441e-01	1.53855829e-05	1.79426138e-01	7.79302906e-11	1.83780430e-01
4.86541078e-01	1.19520001e-01	2.92968761e-04	4.86406088e-01	1.48968752e+05	3.00000000e+02	1.07763552e+03	4.08825057e+06	9.27056517e-01	1.53610048e-05	1.80635971e-01	8.75949696e-11	1.78241935e-01
4.85348896e-01	1.19520001e-01	2.92968761e-04	4.98932614e-01	1.53814632e+05	3.00000000e+02	1.09661833e+03	4.14100947e+06	9.48722731e-01	1.53355648e-05	1.81886271e-01	1.01026430e-10	1.72127863e-01
3.84001315e-01	1.19520001e-01	6.09375024e-03	1.41990102e+00	1.37853706e+05	3.00000000e+02	6.85683423e+02	1.72022967e+06	1.06579950e+00	1.82098234e-05	1.38842839e-76	-4.24186091e-93	-1.71430962e-74
3.84001314e-01	1.19520001e-01	5.15625020e-03	1.41989529e+00	1.37853675e+05	3.00000000e+02	6.85726627e+02	1.72028952e+06	1.06583093e+00	1.82098234e-05	3.25426103e-78	-6.30500095e-94	-3.84107421e-76
3.85455906e-01	1.19520001e-01	4.21875017e-03	1.55355878e+00	1.51420591e+05	3.00000000e+02	6.37041533e+02	1.78185222e+06	1.07456421e+00	1.82098234e-05	1.71485891e-76	-4.31887060e-93	-3.44269405e-75
3.88199389e-01	1.19520001e-01	1.40625005e-03	1.70731040e+00	1.68845069e+05	3.00000000e+02	7.61553162e+02	2.01357959e+06	1.23166048e+00	1.82098234e-05	4.77304167e-74	1.37752489e-94	4.22290616e-73
3.88199389e-01	1.19520001e-01	4.68750019e-04	1.70732625e+00	1.68848226e+05	3.00000000e+02	7.61626451e+02	2.01373061e+06	1.23172546e+00	1.82098234e-05	4.56132172e-74	3.45957206e-94	4.03328458e-73
3.96271244e-01	1.19520001e-01	8.90625036e-03	1.41133356e+00	1.37547408e+05	3.00000000e+02	9.08199914e+02	1.78059667e+06	1.22289794e+00	1.82098234e-05	5.60437686e-50	1.49453581e-66	1.43095785e-49
3.95249277e-01	1.19520001e-01	8.90625035e-03	1.45037397e+00	1.42008008e+05	3.00000000e+02	9.31427267e+02	1.85391963e+06	1.25544914e+00	1.82098234e-05	1.66699743e-52	3.69426407e-69	4.19619780e-52
3.94186422e-01	1.19520001e-01	8.90625036e-03	1.49637278e+00	1.47270836e+05	3.00000000e+02	9.51427138e+02	1.93620612e+06	1.28882015e+00	1.82098234e-05	4.90467100e-55	8.75892807e-72	1.14068221e-54
3.93081054e-01	1.19520001e-01	8.90625035e-03	1.54832496e+00	1.53206227e+05	3.00000000e+02	9.63432446e+02	2.02239303e+06	1.31924769e+00	1.82098234e-05	1.39651272e-57	1.94043887e-74	2.66776707e-57
3.91931475e-01	1.19520001e-01	8.90625036e-03	1.60304447e+00	1.59414191e+05	3.00000000e+02	9.60813949e+02	2.10274425e+06	1.34053169e+00	1.82098234e-05	3.78105320e-60	3.83692286e-77	3.87249775e-60
3.90735894e-01	1.19520001e-01	8.90625035e-03	1.65384773e+00	1.65110454e+05	3.00000000e+02	9.37701526e+02	2.16598718e+06	1.34513144e+00	1.82098234e-05	9.65532883e-63	6.64191504e-80	-9.14526718e-63
3.89492497e-01	1.19520001e-01	8.90625035e-03	1.68549634e+00	1.68879925e+05	3.00000000e+02	8.98166156e+02	2.22475317e+06	1.32900588e+00	1.82098234e-05	2.31332055e-65	9.83803368e-83	-1.33375074e-64
3.88199389e-01	1.19520001e-01	8.90625035e-03	1.70732653e+00	1.68848220e+05	3.00000000e+02	7.61625765e+02	2.01372746e+06	1.23172501e+00	1.82098234e-05	4.83982687e-68	1.18216811e-85	-1.00017311e-66
3.86854545e-01	1.19520001e-01	8.90625036e-03	1.65560490e+00	1.63125251e+05	3.00000000e+02	6.90661737e+02	1.95414284e+06	1.15503648e+00	1.82098234e-05	8.60468867e-71	5.28335467e-89	-4.75757305e-69
3.96271244e-01	1.19520001e-01	7.96875032e-03	1.41133436e+00	1.37546785e+05	3.00000000e+02	9.08166370e+02	1.78051610e+06	1.22287571e+00	1.82098234e-05	5.97369166e-49	1.52398120e-65	1.58410475e-48
3.95249277e-01	1.19520001e-01	7.96875032e-03	1.45038747e+00	1.42008609e+05	3.00000000e+02	9.31391872e+02	1.85383910e+06	1.25543113e+00	1.82098234e-05	1.78648169e-51	3.73665658e-68	4.52251510e-51
3.94186422e-01	1.19520001e-01	7.96875032e-03	1.49640099e+00	1.47272764e+05	3.00000000e+02	9.51378336e+02	1.93611416e+06	1.28879925e+00	1.82098234e-05	5.17776272e-54	8.72874800e-71	1.19302016e-53
3.93081054e-01	1.19520001e-01	7.96875032e-03	1.54836705e+00	1.53209299e+05	3.00000000e+02	9.63362109e+02	2.02227850e+06	1.31921746e+00	1.82098234e-05	1.44360107e-56	1.90195755e-73	2.69107433e-56
3.91931474e-01	1.19520001e-01	7.96875032e-03	1.60309276e+00	1.59417481e+05	3.00000000e+02	9.60715927e+02	2.10259100e+06	1.34048350e+00	1.82098234e-05	3.82043484e-59	3.69906183e-76	3.59302407e-59
3.90735895e-01	1.19520001e-01	7.96875032e-03	1.65388943e+00	1.65112683e+05	3.00000000e+02	9.37583281e+02	2.16579722e+06	1.34506358e+00	1.82098234e-05	9.53358137e-62	6.30271467e-79	-1.05535818e-61
3.89492497e-01	1.19520001e-01	7.96875032e-03	1.68551588e+00	1.68879752e+05	3.00000000e+02	8.98049758e+02	2.22454785e+06	1.32892746e+00	1.82098234e-05	2.23349083e-64	9.19891214e-82	-1.36271362e-63
3.88199389e-01	1.19520001e-01	7.96875032e-03	1.70731068e+00	1.68845065e+05	3.00000000e+02	7.61552403e+02	2.01357651e+06	1.23165997e+00	1.82098234e-05	4.57512982e-67	1.09112690e-84	-9.85194289e-66
3.86854544e-01	1.19520001e-01	7.96875032e-03	1.65555739e+00	1.63120035e+05	3.00000000e+02	6.90656905e+02	1.95409030e+06	1.15501587e+00	1.82098234e-05	7.97728846e-70	5.66300263e-88	-4.57971208e-68
3.96271244e-01	1.19520001e-01	7.03125028e-03	1.41132556e+00	1.37545994e+05	3.00000000e+02	9.08191958e+02	1.78052377e+06	1.22288912e+00	1.82098234e-05	1.73567213e-48	3.94193419e-65	4.64336423e-48
3.95249278e-01	1.19520001e-01	7.03125028e-03	1.45039394e+00	1.42009229e+05	3.00000000e+02	9.31402042e+02	1.85383757e+06	1.25544078e+00	1.82098234e-05	5.32390541e-51	9.74407901e-68	1.33528002e-50
3.94186422e-01	1.19520001e-01	7.03125028e-03	1.49642592e+00	1.47275123e+05	3.00000000e+02	9.51372801e+02	1.93610387e+06	1.28880623e+00	1.82098234e-05	1.54956625e-53	2.27468514e-70	3.47845896e-53
3.93081054e-01	1.19520001e-01	7.03125028e-03	1.54840921e+00	1.53213139e+05	3.00000000e+02	9.63330091e+02	2.02224371e+06	1.31921350e+00	1.82098234e-05	4.30732108e-56	4.93812361e-73	7.58196096e-56
3.91931475e-01	1.19520001e-01	7.03125028e-03	1.60314341e+00	1.59421703e+05	3.00000000e+02	9.60648259e+02	2.10250854e+06	1.34045747e+00	1.82098234e-05	1.13327504e-58	9.55856406e-76	8.53317482e-59
3.90735895e-01	1.19520001e-01	7.03125028e-03	1.65393429e+00	1.65115768e+05	3.00000000e+02	9.37485271e+02	2.16566049e+06	1.34501152e+00	1.82098234e-05	2.80828522e-61	1.62064528e-78	-4.14121933e-61
3.89492497e-01	1.19520001e-01	7.03125028e-03	1.68553786e+00	1.68880073e+05	3.00000000e+02	8.97941605e+02	2.22436657e+06	1.32885610e+00	1.82098234e-05	6.53134328e-64	2.35409231e-81	-4.50721103e-63
3.88199389e-01	1.19520001e-01	7.03125028e-03	1.70729553e+00	1.68841824e+05	3.00000000e+02	7.61476430e+02	2.01341086e+06	1.23159307e+00	1.82098234e-05	1.32862435e-66	2.78019351e-84	-3.14302080e-65
3.86854545e-01	1.19520001e-01	7.03125028e-03	1.65550694e+00	1.63114097e+05	3.00000000e+02	6.90646493e+02	1.95399564e+06	1.15498956e+00	1.82098234e-05	2.30233872e-69	1.47286504e-87	-1.44013953e-67
3.96271244e-01	1.19520001e-01	6.09375024e-03	1.41132005e+00	1.37545526e+05	3.00000000e+02	9.08197065e+02	1.78053169e+06	1.22289017e+00	1.82098234e-05	2.16300578e-50	3.95165206e-67	5.75145956e-50
3.95249278e-01	1.19520001e-01	6.09375024e-03	1.45040105e+00	1.42010202e+05	3.00000000e+02	9.31426828e+02	1.85386859e+06	1.25546056e+00	1.82098234e-05	8.19970018e-53	1.18734073e-69	2.03492690e-52
3.94186422e-01	1.19520001e-01	6.09375024e-03	1.49645117e+00	1.47277770e+05	3.00000000e+02	9.51379841e+02	1.93612150e+06	1.28882187e+00	1.82098234e-05	2.84714316e-55	3.25535670e-72	6.26306298e-55
3.93081054e-01	1.19520001e-01	6.09375024e-03	1.54845116e+00	1.53217103e+05	3.00000000e+02	9.63303669e+02	2.02222411e+06	1.31921328e+00	1.82098234e-05	9.20478673e-58	8.09345777e-75	1.54510727e-57
3.91931475e-01	1.19520001e-01	6.09375024e-03	1.60319164e+00	1.59425759e+05	3.00000000e+02	9.60583727e+02	2.10243366e+06	1.34043261e+00	1.82098234e-05	2.76450051e-60	1.75992187e-77	1.64889172e-60
3.90735894e-01	1.19520001e-01	6.09375024e-03	1.65397383e+00	1.65118416e+05	3.00000000e+02	9.37394391e+02	2.16553298e+06	1.34496240e+00	1.82098234e-05	7.70550230e-63	3.29897823e-80	-1.40498100e-62
3.89492497e-01	1.19520001e-01	6.09375024e-03	1.68555261e+00	1.68879890e+05	3.00000000e+02	8.97849979e+02	2.22420659e+06	1.32879411e+00	1.82098234e-05	1.98782920e-65	5.22593179e-83	-1.54176301e-64
3.88199389e-01	1.19520001e-01	6.09375024e-03	1.70727440e+00	1.68838345e+05	3.00000000e+02	7.61422835e+02	2.01327880e+06	1.23154210e+00	1.82098234e-05	4.42843388e-68	6.64932419e-86	-1.15743689e-66
3.86854544e-01	1.19520001e-01	6.09375024e-03	1.65545611e+00	1.63108488e+05	3.00000000e+02	6.90656542e+02	1.95393669e+06	1.15498024e+00	1.82098234e-05	8.29158051e-71	3.32012128e-89	-5.62082202e-69
3.85455907e-01	1.19520001e-01	6.09375024e-03	1.55358659e+00	1.51422924e+05	3.00000000e+02	6.36995472e+02	1.78181293e+06	1.07453497e+00	1.82098234e-05	1.20288807e-73	-2.74076846e-91	-1.42800104e-71
3.96271244e-01	1.19520001e-01	5.15625020e-03	1.41132029e+00	1.37545372e+05	3.00000000e+02	9.08168830e+02	1.78051134e+06	1.22287127e+00	1.82098234e-05	1.58824075e-52	2.33971205e-69	4.18708624e-52
3.95249277e-01	1.19520001e-01	5.15625020e-03	1.45040590e+00	1.42010915e+05	3.00000000e+02	9.31444915e+02	1.85389517e+06	1.25547485e+00	1.82098234e-05	7.27048378e-55	8.34083024e-72	1.78380242e-54
3.94186422e-01	1.19520001e-01	5.15625020e-03	1.49646650e+00	1.47279465e+05	3.00000000e+02	9.51389082e+02	1.93614164e+06	1.28883474e+00	1.82098234e-05	2.96029644e-57	2.63808126e-74	6.37617602e-57
3.93081054e-01	1.19520001e-01	5.15625020e-03	1.54847680e+00	1.53219584e+05	3.00000000e+02	9.63290341e+02	2.02221828e+06	1.31921507e+00	1.82098234e-05	1.09821912e-59	7.40770092e-77	1.75389455e-59
3.91931474e-01	1.19520001e-01	5.15625020e-03	1.60322056e+00	1.59428238e+05	3.00000000e+02	9.60546858e+02	2.10239341e+06	1.34041897e+00	1.82098234e-05	3.72169427e-62	1.78888418e-79	1.63999124e-62
3.90735895e-01	1.19520001e-01	5.15625020e-03	1.65399662e+00	1.65119978e+05	3.00000000e+02	9.37343061e+02	2.16546283e+06	1.34493484e+00	1.82098234e-05	1.15444500e-64	3.67193805e-82	-2.48208161e-64
3.89492497e-01	1.19520001e-01	5.15625020e-03	1.68555975e+00	1.68879715e+05	3.00000000e+02	8.97800558e+02	2.22412071e+06	1.32876036e+00	1.82098234e-05	3.27410158e-67	6.29456968e-85	-2.78472524e-66
3.88199389e-01	1.19520001e-01	5.15625020e-03	1.70726036e+00	1.68836232e+05	3.00000000e+02	7.61396492e+02	2.01320990e+06	1.23151574e+00	1.82098234e-05	7.93002529e-70	8.53804443e-88	-2.23181766e-68