VARIABLES ="X" "Y" "Z" "rho" "press" "temp" "tau_wall" "qdot" "yplus" "muLam" "ZMean" "ZVar" "CMean" 
Zone T ="wall" I = 8632 , F = point
5.68622500e-01	1.29320011e-01	4.39453148e-03	1.83338506e+00	2.00057417e+05	3.00000000e+02	2.23639291e+03	4.80393738e+06	1.65358795e+00	1.81806411e-05	7.85443341e-04	5.22071566e-13	7.85918928e-03
5.68622500e-01	1.29320011e-01	4.98046889e-03	1.86501932e+00	2.03573613e+05	3.00000000e+02	2.25889121e+03	4.84416507e+06	1.67582045e+00	1.81843355e-05	5.19376501e-04	3.63748662e-13	5.53873151e-03
5.68622500e-01	1.29320011e-01	2.92968761e-04	1.74600097e+00	1.93466210e+05	3.00000000e+02	1.98924441e+03	4.98477158e+06	1.53116354e+00	1.80709229e-05	3.57681380e-03	1.57292260e-12	3.08939800e-02
5.68622500e-01	1.29320011e-01	8.78906286e-04	1.74928556e+00	1.93727225e+05	3.00000000e+02	2.02719696e+03	4.97921427e+06	1.54630527e+00	1.80808435e-05	3.37842136e-03	1.60765932e-12	2.93675361e-02
5.68622500e-01	1.29320011e-01	1.46484381e-03	1.75664989e+00	1.93898245e+05	3.00000000e+02	2.03849648e+03	4.92736620e+06	1.55305634e+00	1.80903085e-05	3.02003354e-03	1.44778748e-12	2.64932877e-02
5.68622500e-01	1.29320011e-01	2.05078133e-03	1.76646674e+00	1.94327684e+05	3.00000000e+02	2.07852995e+03	4.87117802e+06	1.57086030e+00	1.81104361e-05	2.55692113e-03	1.32536584e-12	2.26759243e-02
5.68622500e-01	1.29320011e-01	2.63671891e-03	1.77807597e+00	1.94959180e+05	3.00000000e+02	2.11028641e+03	4.83688197e+06	1.58691680e+00	1.81228834e-05	2.04838456e-03	1.12115884e-12	1.86032783e-02
5.68622500e-01	1.29320011e-01	3.22265643e-03	1.79265938e+00	1.95998353e+05	3.00000000e+02	2.15834359e+03	4.79829658e+06	1.60935144e+00	1.81465423e-05	1.55807422e-03	9.37323144e-13	1.45058220e-02
5.68622500e-01	1.29320011e-01	3.80859396e-03	1.81007407e+00	1.97634176e+05	3.00000000e+02	2.19907339e+03	4.79971119e+06	1.63097333e+00	1.81617115e-05	1.13080391e-03	7.12849677e-13	1.09836149e-02
5.69999933e-01	1.29320011e-01	4.39453148e-03	1.84481771e+00	2.01232084e+05	3.00000000e+02	2.19392836e+03	4.79479847e+06	1.64320558e+00	1.81773951e-05	8.22825899e-04	5.17807686e-13	8.16701579e-03
5.69999934e-01	1.29320011e-01	4.98046889e-03	1.88248649e+00	2.05553600e+05	3.00000000e+02	2.22689319e+03	4.84808434e+06	1.67160608e+00	1.81851665e-05	5.45065496e-04	3.70739210e-13	5.83284408e-03
5.69999934e-01	1.29320011e-01	5.56640653e-03	1.92868739e+00	2.11054870e+05	3.00000000e+02	2.24825133e+03	4.91248704e+06	1.69909364e+00	1.81958200e-05	3.42206653e-04	2.40595039e-13	4.06620082e-03
5.69999934e-01	1.29320011e-01	6.15234417e-03	1.98431970e+00	2.17567757e+05	3.00000000e+02	2.26225328e+03	4.96103145e+06	1.72746155e+00	1.82097357e-05	2.02679143e-04	1.48765403e-13	2.65286542e-03
5.69999933e-01	1.29320011e-01	6.73828158e-03	2.04420036e+00	2.24384804e+05	3.00000000e+02	2.25055055e+03	4.99977289e+06	1.74875347e+00	1.82101333e-05	1.11594133e-04	8.18400003e-14	1.32470238e-03
5.69999933e-01	1.29320011e-01	7.32421898e-03	2.10191354e+00	2.30865121e+05	3.00000000e+02	2.22509874e+03	5.02180951e+06	1.76323348e+00	1.82099118e-05	5.63895784e-05	4.03476789e-14	5.80188622e-04
5.69999934e-01	1.29320011e-01	7.91015662e-03	2.15207198e+00	2.36326286e+05	3.00000000e+02	2.19589722e+03	5.02049314e+06	1.77240775e+00	1.82098496e-05	2.60652317e-05	1.79868651e-14	2.34486726e-04
5.69999934e-01	1.29320011e-01	8.49609403e-03	2.18746908e+00	2.40002663e+05	3.00000000e+02	2.17015021e+03	5.00126179e+06	1.77641942e+00	1.82098321e-05	1.13942450e-05	7.56565040e-15	9.11623370e-05
5.69999934e-01	1.29320011e-01	9.08203144e-03	2.20812367e+00	2.42702057e+05	3.00000000e+02	2.18021689e+03	5.04436949e+06	1.78892164e+00	1.82098273e-05	5.74596231e-06	4.03973111e-15	4.14113912e-05
5.63143372e-01	1.29320011e-01	2.92968761e-04	1.88902727e+00	2.12143483e+05	3.00000000e+02	2.20251633e+03	5.36365883e+06	1.67503021e+00	1.80797173e-05	3.16917526e-03	2.31356520e-12	2.74227751e-02
5.61781168e-01	1.29320011e-01	2.92968761e-04	1.99536559e+00	2.26629162e+05	3.00000000e+02	2.26481667e+03	5.64228327e+06	1.74471025e+00	1.80900618e-05	3.05730670e-03	2.92022014e-12	2.66559632e-02
5.60422004e-01	1.29320011e-01	2.92968761e-04	2.13196080e+00	2.45322370e+05	3.00000000e+02	2.30023785e+03	5.98429628e+06	1.81712655e+00	1.80936591e-05	2.93854030e-03	3.88347103e-12	2.57219569e-02
5.59065848e-01	1.29320011e-01	2.92968761e-04	2.27663943e+00	2.64844320e+05	3.00000000e+02	2.25263921e+03	6.29363062e+06	1.85882843e+00	1.80879453e-05	2.81025925e-03	4.76917403e-12	2.45490212e-02
5.57712704e-01	1.29320011e-01	2.92968761e-04	2.39349216e+00	2.80046694e+05	3.00000000e+02	2.13864338e+03	6.43205273e+06	1.85548905e+00	1.81034935e-05	2.67694086e-03	5.27945338e-12	2.33514315e-02
5.63143372e-01	1.29320011e-01	8.78906286e-04	1.89618073e+00	2.12783643e+05	3.00000000e+02	2.22659165e+03	5.34023735e+06	1.68610206e+00	1.80930544e-05	2.97348460e-03	2.22387754e-12	2.60585588e-02
5.61781168e-01	1.29320011e-01	8.78906286e-04	2.00193935e+00	2.26999147e+05	3.00000000e+02	2.27732573e+03	5.62439821e+06	1.75248830e+00	1.80891644e-05	2.86162337e-03	2.77811166e-12	2.50727506e-02
5.60422004e-01	1.29320011e-01	8.78906287e-04	2.13438142e+00	2.44994576e+05	3.00000000e+02	2.29151654e+03	5.94940899e+06	1.81500412e+00	1.80907051e-05	2.74094402e-03	3.43623919e-12	2.39763573e-02
5.59065848e-01	1.29320011e-01	8.78906286e-04	2.27615275e+00	2.63827517e+05	3.00000000e+02	2.26150972e+03	6.18452994e+06	1.86007496e+00	1.81094425e-05	2.61381993e-03	4.24606173e-12	2.29459980e-02
5.57712704e-01	1.29320011e-01	8.78906287e-04	2.38453539e+00	2.78159397e+05	3.00000000e+02	2.16211910e+03	6.35939967e+06	1.86109857e+00	1.81137310e-05	2.48265557e-03	4.87635618e-12	2.18918731e-02
5.63143372e-01	1.29320011e-01	1.46484381e-03	1.90637755e+00	2.13345494e+05	3.00000000e+02	2.23977753e+03	5.29340963e+06	1.69439595e+00	1.81062116e-05	2.62683726e-03	2.00038582e-12	2.31316763e-02
5.61781168e-01	1.29320011e-01	1.46484381e-03	2.01214358e+00	2.27555392e+05	3.00000000e+02	2.30138035e+03	5.56025402e+06	1.76383732e+00	1.81134323e-05	2.51298753e-03	2.55510219e-12	2.22115631e-02
5.60422004e-01	1.29320011e-01	1.46484381e-03	2.13942344e+00	2.44657067e+05	3.00000000e+02	2.31122391e+03	5.86563484e+06	1.82308102e+00	1.81091894e-05	2.38771019e-03	3.16258369e-12	2.11446540e-02
5.59065848e-01	1.29320011e-01	1.46484381e-03	2.26990798e+00	2.61669155e+05	3.00000000e+02	2.25487175e+03	6.10404281e+06	1.85560688e+00	1.81015044e-05	2.25327229e-03	3.55691892e-12	1.98809585e-02
5.63143372e-01	1.29320011e-01	2.05078133e-03	1.91977131e+00	2.14048327e+05	3.00000000e+02	2.24128582e+03	5.25212931e+06	1.70042889e+00	1.81113362e-05	2.17475335e-03	1.66528939e-12	1.94547716e-02
5.61781168e-01	1.29320011e-01	2.05078133e-03	2.02420358e+00	2.27940194e+05	3.00000000e+02	2.30531654e+03	5.49120997e+06	1.76960314e+00	1.81239182e-05	2.06037635e-03	2.09700918e-12	1.85878812e-02
5.60422003e-01	1.29320011e-01	2.05078133e-03	2.14416116e+00	2.43726070e+05	3.00000000e+02	2.32074772e+03	5.74294374e+06	1.82732286e+00	1.81243728e-05	1.93385280e-03	2.56084744e-12	1.74429455e-02
5.59065848e-01	1.29320011e-01	2.05078133e-03	2.26128635e+00	2.58960923e+05	3.00000000e+02	2.27530900e+03	5.93565685e+06	1.85740133e+00	1.81312530e-05	1.80033822e-03	2.85190554e-12	1.62198089e-02
5.63143372e-01	1.29320011e-01	2.63671891e-03	1.93633707e+00	2.15382902e+05	3.00000000e+02	2.28548932e+03	5.20391325e+06	1.72150323e+00	1.81429470e-05	1.69168532e-03	1.44686533e-12	1.54770760e-02
5.61781168e-01	1.29320011e-01	2.63671891e-03	2.03463228e+00	2.28230712e+05	3.00000000e+02	2.32585045e+03	5.41997312e+06	1.77969868e+00	1.81477579e-05	1.58025035e-03	1.71999542e-12	1.45721287e-02
5.60422003e-01	1.29320011e-01	2.63671891e-03	2.14195079e+00	2.42006952e+05	3.00000000e+02	2.31897824e+03	5.62443253e+06	1.82388739e+00	1.81422296e-05	1.45844807e-03	1.94372542e-12	1.34845088e-02
5.59065848e-01	1.29320011e-01	2.63671891e-03	2.24015528e+00	2.54583790e+05	3.00000000e+02	2.26586844e+03	5.79813630e+06	1.84451197e+00	1.81347062e-05	1.33463030e-03	2.01480143e-12	1.23287654e-02
5.63143372e-01	1.29320011e-01	3.22265643e-03	1.95217069e+00	2.16502339e+05	3.00000000e+02	2.29857898e+03	5.18066979e+06	1.73280765e+00	1.81498839e-05	1.23814296e-03	1.06719703e-12	1.17499668e-02
5.61781168e-01	1.29320011e-01	3.22265643e-03	2.04188114e+00	2.28043983e+05	3.00000000e+02	2.34020396e+03	5.34498690e+06	1.78682538e+00	1.81633340e-05	1.13734694e-03	1.24019720e-12	1.08830177e-02
5.60422003e-01	1.29320011e-01	3.22265644e-03	2.13256076e+00	2.39607330e+05	3.00000000e+02	2.33622963e+03	5.50126125e+06	1.82410944e+00	1.81674167e-05	1.03030073e-03	1.35481986e-12	9.84244903e-03
5.59065848e-01	1.29320011e-01	3.22265643e-03	2.20938742e+00	2.49463362e+05	3.00000000e+02	2.30324428e+03	5.63075392e+06	1.84325807e+00	1.81700194e-05	9.27171412e-04	1.40873601e-12	8.80586447e-03
5.63143372e-01	1.29320011e-01	3.80859396e-03	1.96801364e+00	2.17652602e+05	3.00000000e+02	2.32456513e+03	5.12551052e+06	1.74726369e+00	1.81744826e-05	8.58089979e-04	7.80767863e-13	8.39629049e-03
5.61781168e-01	1.29320011e-01	3.80859396e-03	2.04240726e+00	2.27057816e+05	3.00000000e+02	2.34721721e+03	5.25184999e+06	1.78787989e+00	1.81821430e-05	7.73020407e-04	8.35155723e-13	7.69652052e-03
5.60422003e-01	1.29320011e-01	3.80859396e-03	2.11222602e+00	2.35983227e+05	3.00000000e+02	2.34678176e+03	5.37946007e+06	1.81763121e+00	1.81859659e-05	6.86258333e-04	8.80019261e-13	6.97444856e-03
5.59065848e-01	1.29320011e-01	3.80859396e-03	2.16562544e+00	2.42880406e+05	3.00000000e+02	2.33210224e+03	5.48374231e+06	1.83461976e+00	1.81867457e-05	6.06929870e-04	9.14915558e-13	6.25109114e-03
5.63143372e-01	1.29320011e-01	4.39453148e-03	1.97894729e+00	2.18412551e+05	3.00000000e+02	2.33440966e+03	5.10100536e+06	1.75470655e+00	1.81859817e-05	5.63065497e-04	5.34033664e-13	5.86569000e-03
5.61781168e-01	1.29320011e-01	4.39453148e-03	2.03411874e+00	2.25185932e+05	3.00000000e+02	2.33275104e+03	5.18650923e+06	1.77862380e+00	1.81833477e-05	4.96197987e-04	5.23154889e-13	5.20411756e-03
5.60422003e-01	1.29320011e-01	4.39453149e-03	2.08001866e+00	2.31176194e+05	3.00000000e+02	2.32851572e+03	5.28628595e+06	1.79669286e+00	1.81859066e-05	4.31722749e-04	5.16486329e-13	4.62007315e-03
5.59065848e-01	1.29320011e-01	4.39453149e-03	2.11040420e+00	2.35218647e+05	3.00000000e+02	2.33476721e+03	5.35207415e+06	1.81141831e+00	1.81937180e-05	3.76093566e-04	5.32684393e-13	4.14174257e-03
5.63143372e-01	1.29320011e-01	4.98046889e-03	1.98263048e+00	2.18347059e+05	3.00000000e+02	2.33324107e+03	5.06375598e+06	1.75492938e+00	1.81960302e-05	3.49392675e-04	3.26076944e-13	4.01592324e-03
5.61781168e-01	1.29320011e-01	4.98046889e-03	2.01846579e+00	2.22753172e+05	3.00000000e+02	2.33087035e+03	5.11248357e+06	1.76924822e+00	1.82018942e-05	3.01433223e-04	3.11617064e-13	3.54366004e-03
5.63143372e-01	1.29320011e-01	5.56640653e-03	1.97884185e+00	2.17200429e+05	3.00000000e+02	2.31742873e+03	4.98535065e+06	1.74589832e+00	1.82106474e-05	2.05126678e-04	1.85739357e-13	2.50311872e-03
5.61781168e-01	1.29320011e-01	5.56640653e-03	1.99445442e+00	2.19001466e+05	3.00000000e+02	2.31182098e+03	4.99956178e+06	1.75066349e+00	1.82105088e-05	1.73492545e-04	1.72180693e-13	2.03974048e-03
5.63143372e-01	1.29320011e-01	6.15234417e-03	1.96781801e+00	2.14996848e+05	3.00000000e+02	2.27743187e+03	4.88897401e+06	1.72598837e+00	1.82101237e-05	1.13090300e-04	9.55323173e-14	1.24995314e-03
5.61781168e-01	1.29320011e-01	6.15234417e-03	1.96399937e+00	2.14473741e+05	3.00000000e+02	2.27394646e+03	4.87984539e+06	1.72300169e+00	1.82100309e-05	9.39501373e-05	8.65749700e-14	9.74903368e-04
5.63143372e-01	1.29320011e-01	6.73828158e-03	1.94979067e+00	2.11927790e+05	3.00000000e+02	2.22644679e+03	4.77383848e+06	1.69874384e+00	1.82099124e-05	5.81965900e-05	4.49733627e-14	5.56504417e-04
5.61781168e-01	1.29320011e-01	6.73828157e-03	1.92936852e+00	2.09495434e+05	3.00000000e+02	2.23349747e+03	4.75125501e+06	1.69250000e+00	1.82098868e-05	4.78030601e-05	4.06219033e-14	4.31569727e-04
5.63143372e-01	1.29320011e-01	7.32421898e-03	1.92703218e+00	2.08385041e+05	3.00000000e+02	2.17958170e+03	4.65741036e+06	1.67093767e+00	1.82098515e-05	2.80070284e-05	1.99648590e-14	2.35278010e-04
5.61781168e-01	1.29320011e-01	7.32421898e-03	1.89426894e+00	2.04628516e+05	3.00000000e+02	2.20181340e+03	4.63361927e+06	1.66510043e+00	1.82098446e-05	2.29873285e-05	1.82906659e-14	1.84609459e-04
5.63143372e-01	1.29320011e-01	7.91015662e-03	1.90285689e+00	2.04902646e+05	3.00000000e+02	2.14557444e+03	4.56055129e+06	1.64742056e+00	1.82098333e-05	1.27680015e-05	8.57826639e-15	9.63009821e-05
5.61781168e-01	1.29320011e-01	7.91015663e-03	1.86254769e+00	2.00400770e+05	3.00000000e+02	2.18284164e+03	4.54208302e+06	1.64397228e+00	1.82098313e-05	1.06003646e-05	8.04619700e-15	7.69833564e-05
5.63143373e-01	1.29320011e-01	8.49609403e-03	1.88270610e+00	2.02145971e+05	3.00000000e+02	2.12686770e+03	4.49400452e+06	1.63151576e+00	1.82098273e-05	5.76628387e-06	3.70168002e-15	3.93999190e-05
5.61781168e-01	1.29320011e-01	8.49609403e-03	1.83919931e+00	1.97390575e+05	3.00000000e+02	2.17623659e+03	4.48422689e+06	1.63116253e+00	1.82098267e-05	4.90394563e-06	3.57699374e-15	3.23832262e-05
5.63143372e-01	1.29320011e-01	9.08203144e-03	1.87072177e+00	2.00317791e+05	3.00000000e+02	2.10353138e+03	4.43177377e+06	1.61736826e+00	1.82098253e-05	3.02717502e-06	1.87409971e-15	1.87897845e-05
5.61781168e-01	1.29320011e-01	9.08203143e-03	1.82597143e+00	1.95429171e+05	3.00000000e+02	2.15717858e+03	4.42037060e+06	1.61815404e+00	1.82098251e-05	2.64281159e-06	1.83477581e-15	1.58971234e-05
5.64508617e-01	1.29320011e-01	2.92968761e-04	1.81457135e+00	2.02360907e+05	3.00000000e+02	2.14888244e+03	5.16744196e+06	1.62149627e+00	1.80806065e-05	3.27625431e-03	1.99390192e-12	2.84088874e-02
5.64508617e-01	1.29320011e-01	8.78906287e-04	1.82044310e+00	2.02676170e+05	3.00000000e+02	2.15162586e+03	5.13991965e+06	1.62451316e+00	1.80877396e-05	3.07797805e-03	1.81454062e-12	2.68369351e-02
5.64508617e-01	1.29320011e-01	1.46484381e-03	1.82934370e+00	2.03176946e+05	3.00000000e+02	2.16652561e+03	5.11928296e+06	1.63394994e+00	1.80894940e-05	2.73196644e-03	1.66613880e-12	2.39695263e-02
5.64508617e-01	1.29320011e-01	2.05078133e-03	1.84441439e+00	2.04050226e+05	3.00000000e+02	2.18850583e+03	5.06669234e+06	1.64798152e+00	1.81003246e-05	2.28012584e-03	1.48438555e-12	2.02259791e-02
5.65876871e-01	1.29320011e-01	2.63671891e-03	1.81410792e+00	1.99470161e+05	3.00000000e+02	2.18042584e+03	4.92780383e+06	1.62934752e+00	1.81227497e-05	1.88413746e-03	1.18658615e-12	1.70859199e-02
5.64508617e-01	1.29320011e-01	2.63671891e-03	1.86128034e+00	2.05551384e+05	3.00000000e+02	2.22742579e+03	5.03380162e+06	1.66739371e+00	1.81302985e-05	1.79236942e-03	1.26002372e-12	1.62679370e-02
5.65876872e-01	1.29320011e-01	3.22265644e-03	1.83430977e+00	2.01093961e+05	3.00000000e+02	2.21249895e+03	4.89817550e+06	1.64905337e+00	1.81375558e-05	1.41170595e-03	9.48241788e-13	1.31282262e-02
5.64508617e-01	1.29320011e-01	3.22265644e-03	1.88039695e+00	2.06994474e+05	3.00000000e+02	2.24382589e+03	5.01561558e+06	1.68181497e+00	1.81332950e-05	1.32919014e-03	9.55654268e-13	1.24009400e-02
5.67248166e-01	1.29320011e-01	3.80859396e-03	1.82370382e+00	1.99413915e+05	3.00000000e+02	2.23542874e+03	4.83728601e+06	1.65022276e+00	1.81656354e-05	1.07205085e-03	7.29715447e-13	1.04150965e-02
5.65876871e-01	1.29320011e-01	3.80859396e-03	1.85417890e+00	2.03230296e+05	3.00000000e+02	2.26539509e+03	4.90296585e+06	1.67503637e+00	1.81659933e-05	1.00712712e-03	7.37714017e-13	9.76545622e-03
5.64508617e-01	1.29320011e-01	3.80859396e-03	1.90231387e+00	2.09271087e+05	3.00000000e+02	2.29425258e+03	4.99778141e+06	1.70727415e+00	1.81674525e-05	9.36172382e-04	7.47192664e-13	9.07719035e-03
5.67248166e-01	1.29320011e-01	4.39453149e-03	1.84430172e+00	2.01596933e+05	3.00000000e+02	2.27445688e+03	4.84712289e+06	1.67226512e+00	1.81838275e-05	7.38937069e-04	5.29031880e-13	7.47421492e-03
5.65876872e-01	1.29320011e-01	4.39453149e-03	1.87450837e+00	2.05465488e+05	3.00000000e+02	2.30530947e+03	4.91859048e+06	1.69713204e+00	1.81856267e-05	6.85704789e-04	5.35241819e-13	7.03500067e-03
5.64508617e-01	1.29320011e-01	4.39453149e-03	1.92170864e+00	2.11362274e+05	3.00000000e+02	2.32648887e+03	5.00810599e+06	1.72615374e+00	1.81865526e-05	6.26895831e-04	5.38205100e-13	6.49410649e-03
5.67248166e-01	1.29320011e-01	4.98046889e-03	1.87082086e+00	2.04398106e+05	3.00000000e+02	2.28727620e+03	4.87328283e+06	1.68909792e+00	1.81826080e-05	4.84520740e-04	3.53829017e-13	5.18311942e-03
5.65876872e-01	1.29320011e-01	4.98046889e-03	1.89673994e+00	2.07720082e+05	3.00000000e+02	2.30999844e+03	4.93423884e+06	1.70914848e+00	1.81830002e-05	4.43307266e-04	3.42434606e-13	4.81715834e-03
5.64508617e-01	1.29320011e-01	4.98046889e-03	1.93827768e+00	2.12930496e+05	3.00000000e+02	2.32845652e+03	5.00595432e+06	1.73403364e+00	1.81894741e-05	3.97697694e-04	3.36195132e-13	4.45197220e-03
5.68622500e-01	1.29320011e-01	5.56640653e-03	1.90453531e+00	2.08269503e+05	3.00000000e+02	2.27802658e+03	4.89574929e+06	1.69936605e+00	1.81979541e-05	3.26095620e-04	2.36461873e-13	3.90204011e-03
5.67248166e-01	1.29320011e-01	5.56640653e-03	1.90297124e+00	2.08201758e+05	3.00000000e+02	2.30476606e+03	4.90714892e+06	1.70832548e+00	1.82009692e-05	3.01762913e-04	2.28191777e-13	3.64985355e-03
5.65876872e-01	1.29320011e-01	5.56640653e-03	1.92145338e+00	2.10468502e+05	3.00000000e+02	2.32076625e+03	4.93479470e+06	1.72222946e+00	1.82043513e-05	2.71884473e-04	2.15722816e-13	3.32667077e-03
5.64508617e-01	1.29320011e-01	5.56640653e-03	1.95135105e+00	2.14015998e+05	3.00000000e+02	2.32370601e+03	4.96566725e+06	1.73635752e+00	1.82076853e-05	2.38888623e-04	2.01130678e-13	2.94205523e-03
5.67248166e-01	1.29320011e-01	6.15234417e-03	1.94235868e+00	2.12420871e+05	3.00000000e+02	2.29208541e+03	4.90262703e+06	1.72025186e+00	1.82105757e-05	1.77288903e-04	1.33311065e-13	2.21604216e-03
5.65876872e-01	1.29320011e-01	6.15234417e-03	1.94685769e+00	2.12865811e+05	3.00000000e+02	2.29759151e+03	4.90043690e+06	1.72432615e+00	1.82104088e-05	1.57055123e-04	1.21211222e-13	1.90478370e-03
5.64508617e-01	1.29320011e-01	6.15234417e-03	1.95986066e+00	2.14245962e+05	3.00000000e+02	2.29022592e+03	4.89905947e+06	1.72731441e+00	1.82102522e-05	1.34849473e-04	1.07921691e-13	1.57157876e-03
5.67248166e-01	1.29320011e-01	6.73828158e-03	1.98774784e+00	2.17200290e+05	3.00000000e+02	2.24917900e+03	4.89395177e+06	1.72391960e+00	1.82100544e-05	9.67238770e-05	6.92533109e-14	1.08581393e-03
5.65876872e-01	1.29320011e-01	6.73828158e-03	1.97277123e+00	2.15168524e+05	3.00000000e+02	2.24618177e+03	4.85213623e+06	1.71627337e+00	1.82099999e-05	8.42867318e-05	6.06091739e-14	9.04761407e-04
5.64508617e-01	1.29320011e-01	6.73828158e-03	1.96347653e+00	2.13783607e+05	3.00000000e+02	2.23566529e+03	4.81289336e+06	1.70821717e+00	1.82099504e-05	7.08027114e-05	5.20158493e-14	7.19287522e-04
5.67248166e-01	1.29320011e-01	7.32421899e-03	2.03552437e+00	2.22114036e+05	3.00000000e+02	2.18935394e+03	4.86740214e+06	1.72117253e+00	1.82098904e-05	4.83145331e-05	3.22158522e-14	4.69258600e-04
5.65876872e-01	1.29320011e-01	7.32421899e-03	1.99795374e+00	2.17264697e+05	3.00000000e+02	2.18141852e+03	4.78692819e+06	1.70212258e+00	1.82098755e-05	4.15932150e-05	2.74005882e-14	3.86553443e-04
5.64508617e-01	1.29320011e-01	7.32421899e-03	1.96271745e+00	2.12761487e+05	3.00000000e+02	2.17571934e+03	4.71371010e+06	1.68484236e+00	1.82098619e-05	3.44220844e-05	2.30719230e-14	3.04107391e-04
5.67248166e-01	1.29320011e-01	7.91015662e-03	2.08112714e+00	2.26730849e+05	3.00000000e+02	2.12924537e+03	4.83313046e+06	1.71629343e+00	1.82098437e-05	2.19637780e-05	1.36163399e-14	1.86608006e-04
5.65876871e-01	1.29320011e-01	7.91015662e-03	2.02112821e+00	2.19148992e+05	3.00000000e+02	2.11899211e+03	4.72154542e+06	1.68729520e+00	1.82098398e-05	1.88499383e-05	1.14518894e-14	1.54241074e-04
5.64508617e-01	1.29320011e-01	7.91015662e-03	1.95890973e+00	2.11524855e+05	3.00000000e+02	2.12422004e+03	4.62496064e+06	1.66316953e+00	1.82098362e-05	1.55952153e-05	9.70393522e-15	1.22469573e-04
5.67248166e-01	1.29320011e-01	8.49609403e-03	2.11670840e+00	2.30232258e+05	3.00000000e+02	2.08065302e+03	4.79623664e+06	1.71103954e+00	1.82098302e-05	9.34467804e-06	5.43893760e-15	7.06602816e-05
5.65876871e-01	1.29320011e-01	8.49609403e-03	2.03910486e+00	2.20564475e+05	3.00000000e+02	2.07003367e+03	4.66618329e+06	1.67509024e+00	1.82098292e-05	8.10217677e-06	4.61192995e-15	5.93226882e-05
5.64508617e-01	1.29320011e-01	8.49609403e-03	1.95439905e+00	2.10431556e+05	3.00000000e+02	2.08825896e+03	4.55892117e+06	1.64713254e+00	1.82098282e-05	6.85216968e-06	4.03385670e-15	4.84752772e-05
5.67248166e-01	1.29320011e-01	9.08203144e-03	2.14258346e+00	2.33102797e+05	3.00000000e+02	2.05917532e+03	4.80246315e+06	1.71255815e+00	1.82098264e-05	4.49939905e-06	2.67716771e-15	3.05603178e-05
5.65876872e-01	1.29320011e-01	9.08203144e-03	2.05385461e+00	2.21909490e+05	3.00000000e+02	2.03817281e+03	4.64029900e+06	1.66815020e+00	1.82098260e-05	3.95833896e-06	2.25286843e-15	2.61019972e-05
5.64508617e-01	1.29320011e-01	9.08203143e-03	1.95315484e+00	2.09840028e+05	3.00000000e+02	2.05789203e+03	4.50867558e+06	1.63459226e+00	1.82098256e-05	3.46523877e-06	2.00077925e-15	2.21760871e-05
5.57712704e-01	1.29320011e-01	1.46484381e-03	2.36946825e+00	2.74754960e+05	3.00000000e+02	2.16569551e+03	6.23586964e+06	1.85609704e+00	1.81200363e-05	2.12044613e-03	3.88282159e-12	1.89804271e-02
5.56362570e-01	1.29320011e-01	1.46484381e-03	2.37481422e+00	2.74779335e+05	3.00000000e+02	2.06687251e+03	6.18162710e+06	1.81454028e+00	1.81276141e-05	2.00166063e-03	3.92025473e-12	1.79722747e-02
5.57712704e-01	1.29320011e-01	2.05078133e-03	2.34606004e+00	2.69759491e+05	3.00000000e+02	2.20316642e+03	6.03136827e+06	1.86013455e+00	1.81461480e-05	1.67395263e-03	3.10125637e-12	1.52254209e-02
5.56362569e-01	1.29320011e-01	2.05078133e-03	2.34181140e+00	2.68579187e+05	3.00000000e+02	2.11655308e+03	5.97713395e+06	1.82135164e+00	1.81481490e-05	1.56872995e-03	3.07370047e-12	1.43992427e-02
5.57712704e-01	1.29320011e-01	2.63671891e-03	2.30436108e+00	2.62949321e+05	3.00000000e+02	2.20998555e+03	5.88206765e+06	1.84559148e+00	1.81539027e-05	1.22326286e-03	2.12017930e-12	1.15446554e-02
5.56362569e-01	1.29320011e-01	2.63671891e-03	2.29400884e+00	2.61126292e+05	3.00000000e+02	2.15570857e+03	5.81547723e+06	1.81763802e+00	1.81643878e-05	1.13795214e-03	2.12950416e-12	1.08104221e-02
5.57712704e-01	1.29320011e-01	3.22265644e-03	2.25189937e+00	2.54924290e+05	3.00000000e+02	2.26534914e+03	5.69223864e+06	1.84461735e+00	1.81790578e-05	8.39146565e-04	1.45835337e-12	8.00401459e-03
5.56362569e-01	1.29320011e-01	3.22265643e-03	2.23741304e+00	2.52973353e+05	3.00000000e+02	2.23207969e+03	5.66215703e+06	1.82457842e+00	1.81844844e-05	7.75951412e-04	1.46163667e-12	7.44868462e-03
5.55015445e-01	1.29320011e-01	3.22265643e-03	2.18161108e+00	2.45546755e+05	3.00000000e+02	2.20186019e+03	5.55309526e+06	1.78929923e+00	1.81859569e-05	7.43420393e-04	1.37902715e-12	7.17047742e-03
5.53671300e-01	1.29320011e-01	3.22265643e-03	2.10129486e+00	2.34614914e+05	3.00000000e+02	2.16487117e+03	5.35682948e+06	1.74119199e+00	1.81864722e-05	7.35081157e-04	1.23191367e-12	7.06783942e-03
5.57712704e-01	1.29320011e-01	3.80859396e-03	2.18808652e+00	2.45924730e+05	3.00000000e+02	2.31305023e+03	5.54627282e+06	1.83668408e+00	1.81855279e-05	5.42727953e-04	9.40093448e-13	5.60439963e-03
5.56362569e-01	1.29320011e-01	3.80859396e-03	2.17667495e+00	2.44720179e+05	3.00000000e+02	2.29779709e+03	5.56189383e+06	1.82602935e+00	1.81836251e-05	4.99417756e-04	9.43911909e-13	5.13901670e-03
5.55015445e-01	1.29320011e-01	3.80859396e-03	2.14809578e+00	2.41002333e+05	3.00000000e+02	2.27371161e+03	5.51389781e+06	1.80452678e+00	1.81830518e-05	4.77875397e-04	9.13128637e-13	4.89430443e-03
5.53671301e-01	1.29320011e-01	3.80859396e-03	2.10117131e+00	2.34488627e+05	3.00000000e+02	2.23362581e+03	5.38411017e+06	1.76885031e+00	1.81836245e-05	4.72563859e-04	8.45234030e-13	4.81253395e-03
5.52330107e-01	1.29320011e-01	3.80859396e-03	2.03234174e+00	2.25056986e+05	3.00000000e+02	2.19002460e+03	5.19543344e+06	1.72254626e+00	1.81839224e-05	4.76921742e-04	7.63888699e-13	4.81180493e-03
5.50991893e-01	1.29320011e-01	3.80859396e-03	1.95139264e+00	2.14460648e+05	3.00000000e+02	2.16728147e+03	5.01199903e+06	1.67907124e+00	1.81842949e-05	4.82349592e-04	7.03413345e-13	4.81077329e-03
5.57712704e-01	1.29320011e-01	4.39453149e-03	2.11939598e+00	2.36792290e+05	3.00000000e+02	2.34617087e+03	5.40936751e+06	1.81914006e+00	1.81993271e-05	3.33677415e-04	5.54449979e-13	3.72825893e-03
5.56362569e-01	1.29320011e-01	4.39453148e-03	2.11851074e+00	2.37097809e+05	3.00000000e+02	2.35780801e+03	5.45038539e+06	1.82292317e+00	1.82027408e-05	3.06320098e-04	5.75786317e-13	3.43319190e-03
5.55015445e-01	1.29320011e-01	4.39453149e-03	2.11464094e+00	2.36629268e+05	3.00000000e+02	2.34587403e+03	5.44643194e+06	1.81645873e+00	1.82045825e-05	2.91919214e-04	5.77199989e-13	3.25300636e-03
5.53671300e-01	1.29320011e-01	4.39453149e-03	2.09586956e+00	2.33805436e+05	3.00000000e+02	2.30819403e+03	5.37099926e+06	1.79371829e+00	1.82053756e-05	2.87167885e-04	5.50910842e-13	3.16777699e-03
5.52330107e-01	1.29320011e-01	4.39453149e-03	2.05423836e+00	2.27846216e+05	3.00000000e+02	2.26185527e+03	5.23130677e+06	1.75788838e+00	1.82054797e-05	2.89164475e-04	5.09578376e-13	3.15181826e-03
5.50991893e-01	1.29320011e-01	4.39453149e-03	1.99425568e+00	2.19731247e+05	3.00000000e+02	2.22735998e+03	5.07142626e+06	1.71879259e+00	1.82052962e-05	2.93838156e-04	4.73900813e-13	3.16533039e-03
5.49656689e-01	1.29320011e-01	4.39453148e-03	1.92928327e+00	2.11429300e+05	3.00000000e+02	2.21597454e+03	4.94222765e+06	1.68622762e+00	1.82053814e-05	2.95686270e-04	4.54472131e-13	3.15219543e-03
5.48324435e-01	1.29320011e-01	4.39453149e-03	1.86914652e+00	2.04051090e+05	3.00000000e+02	2.22351912e+03	4.85035970e+06	1.66248552e+00	1.82062220e-05	2.90125674e-04	4.43981300e-13	3.06225539e-03
5.60422003e-01	1.29320011e-01	4.98046889e-03	2.04186269e+00	2.25739664e+05	3.00000000e+02	2.33523722e+03	5.15583881e+06	1.78068892e+00	1.82064934e-05	2.58143460e-04	3.04276134e-13	3.07754096e-03
5.59065848e-01	1.29320011e-01	4.98046889e-03	2.05168440e+00	2.27290240e+05	3.00000000e+02	2.35432349e+03	5.20594392e+06	1.79192423e+00	1.82097634e-05	2.22831224e-04	3.09825549e-13	2.64758836e-03
5.57712704e-01	1.29320011e-01	4.98046889e-03	2.05519208e+00	2.28265409e+05	3.00000000e+02	2.38438164e+03	5.27052386e+06	1.80477691e+00	1.82106801e-05	1.97074915e-04	3.24842450e-13	2.27741205e-03
5.56362569e-01	1.29320011e-01	4.98046889e-03	2.06622505e+00	2.30190859e+05	3.00000000e+02	2.40677995e+03	5.34677030e+06	1.81810962e+00	1.82105279e-05	1.80313667e-04	3.42035221e-13	2.01323183e-03
5.55015445e-01	1.29320011e-01	4.98046889e-03	2.08144871e+00	2.32287056e+05	3.00000000e+02	2.40189103e+03	5.39006867e+06	1.82294930e+00	1.82104431e-05	1.70425911e-04	3.50313147e-13	1.84923418e-03
5.53671301e-01	1.29320011e-01	4.98046889e-03	2.08510657e+00	2.32480606e+05	3.00000000e+02	2.37001613e+03	5.36838735e+06	1.81240757e+00	1.82104009e-05	1.65854797e-04	3.43502979e-13	1.75563714e-03
5.52330107e-01	1.29320011e-01	4.98046889e-03	2.06796512e+00	2.29744208e+05	3.00000000e+02	2.32535148e+03	5.28173974e+06	1.78785502e+00	1.82103883e-05	1.65471936e-04	3.25637888e-13	1.71396075e-03
5.50991893e-01	1.29320011e-01	4.98046889e-03	2.03065429e+00	2.24435343e+05	3.00000000e+02	2.28289014e+03	5.15693634e+06	1.75540291e+00	1.82103916e-05	1.67555380e-04	3.05952646e-13	1.70015109e-03
5.49656689e-01	1.29320011e-01	4.98046889e-03	1.97989530e+00	2.17688181e+05	3.00000000e+02	2.25448454e+03	5.03195669e+06	1.72250723e+00	1.82103917e-05	1.69263155e-04	2.90831576e-13	1.67954158e-03
5.48324436e-01	1.29320011e-01	4.98046889e-03	1.92315221e+00	2.10520551e+05	3.00000000e+02	2.24479646e+03	4.92735491e+06	1.69399517e+00	1.82103689e-05	1.67501356e-04	2.79128642e-13	1.61807907e-03
5.60422003e-01	1.29320011e-01	5.56640653e-03	1.99738869e+00	2.19507702e+05	3.00000000e+02	2.32034457e+03	5.02351524e+06	1.75519696e+00	1.82103072e-05	1.46610903e-04	1.65272728e-13	1.64493896e-03
5.59065848e-01	1.29320011e-01	5.56640653e-03	1.99402571e+00	2.19553093e+05	3.00000000e+02	2.34901936e+03	5.07162224e+06	1.76453447e+00	1.82101752e-05	1.25801342e-04	1.66720853e-13	1.33669860e-03
5.57712704e-01	1.29320011e-01	5.56640653e-03	1.99897981e+00	2.20839444e+05	3.00000000e+02	2.38976920e+03	5.15408435e+06	1.78199125e+00	1.82100951e-05	1.11016685e-04	1.75283395e-13	1.12209204e-03
5.56362569e-01	1.29320011e-01	5.56640653e-03	2.02108524e+00	2.24194892e+05	3.00000000e+02	2.41918035e+03	5.25350779e+06	1.80281413e+00	1.82100476e-05	1.01014888e-04	1.86320513e-13	9.81994273e-04
5.55015445e-01	1.29320011e-01	5.56640653e-03	2.04992265e+00	2.28114424e+05	3.00000000e+02	2.42219436e+03	5.33069327e+06	1.81676370e+00	1.82100183e-05	9.43740988e-05	1.93659093e-13	8.86674375e-04
5.53671301e-01	1.29320011e-01	5.56640653e-03	2.07070253e+00	2.30647340e+05	3.00000000e+02	2.39993572e+03	5.35431407e+06	1.81754130e+00	1.82100010e-05	9.04469980e-05	1.93652880e-13	8.24136712e-04
5.52330107e-01	1.29320011e-01	5.56640653e-03	2.07481428e+00	2.30748375e+05	3.00000000e+02	2.36108565e+03	5.31715490e+06	1.80455993e+00	1.82099927e-05	8.88501250e-05	1.86961600e-13	7.87834837e-04
5.50991893e-01	1.29320011e-01	5.56640653e-03	2.05949322e+00	2.28235064e+05	3.00000000e+02	2.31623685e+03	5.23182065e+06	1.78072785e+00	1.82099902e-05	8.89351504e-05	1.76839417e-13	7.69517793e-04
5.49656689e-01	1.29320011e-01	5.56640653e-03	2.02556359e+00	2.23455859e+05	3.00000000e+02	2.27722281e+03	5.12255077e+06	1.75106235e+00	1.82099892e-05	8.94739429e-05	1.66526304e-13	7.55867717e-04
5.48324435e-01	1.29320011e-01	5.56640653e-03	1.97743194e+00	2.17146932e+05	3.00000000e+02	2.25344120e+03	5.01298542e+06	1.72107544e+00	1.82099845e-05	8.88628276e-05	1.57174359e-13	7.30866534e-04
5.60422003e-01	1.29320011e-01	6.15234417e-03	1.95190181e+00	2.13237893e+05	3.00000000e+02	2.29183102e+03	4.89128847e+06	1.72443419e+00	1.82099709e-05	7.87043666e-05	8.25521064e-14	7.68758802e-04
5.59065848e-01	1.29320011e-01	6.15234417e-03	1.94401313e+00	2.12822111e+05	3.00000000e+02	2.33231521e+03	4.94244581e+06	1.73608282e+00	1.82099342e-05	6.74758677e-05	8.35895438e-14	6.25869831e-04