VARIABLES ="X" "Y" "Z" "rho" "press" "temp" "tau_wall" "qdot" "yplus" "muLam" "ZMean" "ZVar" "CMean" 
Zone T ="wall" I = 8632 , F = point
5.68622500e-01	1.29320011e-01	4.39453148e-03	1.89717657e+00	2.12955129e+05	3.00000000e+02	2.42702118e+03	5.52753863e+06	1.75213500e+00	1.81827133e-05	4.67308848e-04	4.42267273e-13	4.86102425e-03
5.68622500e-01	1.29320011e-01	4.98046889e-03	1.86315681e+00	2.08172564e+05	3.00000000e+02	2.43871544e+03	5.41079985e+06	1.73852476e+00	1.82037132e-05	2.89522570e-04	2.65117140e-13	3.36180050e-03
5.86769879e-01	1.29320011e-01	2.92968761e-04	1.99804191e+00	2.29289031e+05	3.00000000e+02	1.76015127e+03	5.85567388e+06	1.54224966e+00	1.80533668e-05	4.08958122e-03	2.10913141e-12	3.51555290e-02
5.85355252e-01	1.29320011e-01	2.92968761e-04	1.87897977e+00	2.13758421e+05	3.00000000e+02	1.83080416e+03	5.62486189e+06	1.52464041e+00	1.80613483e-05	3.98662449e-03	1.87743045e-12	3.43875800e-02
5.83943754e-01	1.29320011e-01	2.92968761e-04	1.79670464e+00	2.03230566e+05	3.00000000e+02	1.89535426e+03	5.48178152e+06	1.51674754e+00	1.80636637e-05	3.88687528e-03	1.77854106e-12	3.36288287e-02
5.82535386e-01	1.29320011e-01	2.92968761e-04	1.74834874e+00	1.96942454e+05	3.00000000e+02	1.92747149e+03	5.39496007e+06	1.50916501e+00	1.80595483e-05	3.78807360e-03	1.69601769e-12	3.27596825e-02
5.81130147e-01	1.29320011e-01	2.92968761e-04	1.72218424e+00	1.93413857e+05	3.00000000e+02	1.93216251e+03	5.33968049e+06	1.50002141e+00	1.80550947e-05	3.69037049e-03	1.56386953e-12	3.18825166e-02
5.79728007e-01	1.29320011e-01	2.92968761e-04	1.70898452e+00	1.91375648e+05	3.00000000e+02	1.94089223e+03	5.25654773e+06	1.49668328e+00	1.80665598e-05	3.59590123e-03	1.45861767e-12	3.10916785e-02
5.78328996e-01	1.29320011e-01	2.92968761e-04	1.69795512e+00	1.89740811e+05	3.00000000e+02	1.96567543e+03	5.19450182e+06	1.50039077e+00	1.80779933e-05	3.50474547e-03	1.43667615e-12	3.03834798e-02
5.76933116e-01	1.29320011e-01	2.92968761e-04	1.68833323e+00	1.88418258e+05	3.00000000e+02	1.99263759e+03	5.16736761e+06	1.50608735e+00	1.80812595e-05	3.41465601e-03	1.44095808e-12	2.96590240e-02
5.75540334e-01	1.29320011e-01	2.92968761e-04	1.68789962e+00	1.88314470e+05	3.00000000e+02	2.01747770e+03	5.17187990e+06	1.51533225e+00	1.80802907e-05	3.32455499e-03	1.45249652e-12	2.89053716e-02
5.74150622e-01	1.29320011e-01	2.92968761e-04	1.70334447e+00	1.90180691e+05	3.00000000e+02	2.04251131e+03	5.20622564e+06	1.53174412e+00	1.80793516e-05	3.23386149e-03	1.48348802e-12	2.80515304e-02
5.72763980e-01	1.29320011e-01	2.92968761e-04	1.73817508e+00	1.94652217e+05	3.00000000e+02	2.07407195e+03	5.29305564e+06	1.55907015e+00	1.80812565e-05	3.14211024e-03	1.55752287e-12	2.72631778e-02
5.71380437e-01	1.29320011e-01	2.92968761e-04	1.79605380e+00	2.02399881e+05	3.00000000e+02	2.12771373e+03	5.44452375e+06	1.60442594e+00	1.80897344e-05	3.04922017e-03	1.79299494e-12	2.66436932e-02
5.69999934e-01	1.29320011e-01	2.92968761e-04	1.87725530e+00	2.13389841e+05	3.00000000e+02	2.17689144e+03	5.66913223e+06	1.65881808e+00	1.80932628e-05	2.95246842e-03	2.18614945e-12	2.58797977e-02
5.68622500e-01	1.29320011e-01	2.92968761e-04	1.97919533e+00	2.27133611e+05	3.00000000e+02	2.19013450e+03	5.93592948e+06	1.70892391e+00	1.80880851e-05	2.84959311e-03	2.62853788e-12	2.49482829e-02
5.86769879e-01	1.29320011e-01	8.78906286e-04	2.00207952e+00	2.29862817e+05	3.00000000e+02	1.81586364e+03	5.87244928e+06	1.56728281e+00	1.80621941e-05	3.87367607e-03	2.12955488e-12	3.36143556e-02
5.85355252e-01	1.29320011e-01	8.78906286e-04	1.88586089e+00	2.14841159e+05	3.00000000e+02	1.87115094e+03	5.68695329e+06	1.54439301e+00	1.80587217e-05	3.78575735e-03	1.94007883e-12	3.28050120e-02
5.83943754e-01	1.29320011e-01	8.78906286e-04	1.80195964e+00	2.04015135e+05	3.00000000e+02	1.90763223e+03	5.54822065e+06	1.52469593e+00	1.80539490e-05	3.69430818e-03	1.73684744e-12	3.19527902e-02
5.82535386e-01	1.29320011e-01	8.78906287e-04	1.75285578e+00	1.97462246e+05	3.00000000e+02	1.94067327e+03	5.41067609e+06	1.51582867e+00	1.80648677e-05	3.60106041e-03	1.59064872e-12	3.11611399e-02
5.81130147e-01	1.29320011e-01	8.78906286e-04	1.72557190e+00	1.93785426e+05	3.00000000e+02	1.97664011e+03	5.32137093e+06	1.51684117e+00	1.80769776e-05	3.50838430e-03	1.54701608e-12	3.04437002e-02
5.79728007e-01	1.29320011e-01	8.78906286e-04	1.70897315e+00	1.91525715e+05	3.00000000e+02	1.99744090e+03	5.27444018e+06	1.51712856e+00	1.80808066e-05	3.41566842e-03	1.52672702e-12	2.96957291e-02
5.78328997e-01	1.29320011e-01	8.78906287e-04	1.69683437e+00	1.89810449e+05	3.00000000e+02	2.00582618e+03	5.23931825e+06	1.51498295e+00	1.80798251e-05	3.32309017e-03	1.48617746e-12	2.89216290e-02
5.76933116e-01	1.29320011e-01	8.78906287e-04	1.68875983e+00	1.88515275e+05	3.00000000e+02	2.01314101e+03	5.20247913e+06	1.51420277e+00	1.80789250e-05	3.23135462e-03	1.42502719e-12	2.80541179e-02
5.75540334e-01	1.29320011e-01	8.78906286e-04	1.68937577e+00	1.88406126e+05	3.00000000e+02	2.02858826e+03	5.18983752e+06	1.52010731e+00	1.80809579e-05	3.14076945e-03	1.36528114e-12	2.72740522e-02
5.74150622e-01	1.29320011e-01	8.78906286e-04	1.70581243e+00	1.90472203e+05	3.00000000e+02	2.07143478e+03	5.21374737e+06	1.54283437e+00	1.80891251e-05	3.05171752e-03	1.41717676e-12	2.66843800e-02
5.72763980e-01	1.29320011e-01	8.78906287e-04	1.74125485e+00	1.95163394e+05	3.00000000e+02	2.12187383e+03	5.31178517e+06	1.57732220e+00	1.80928144e-05	2.96179793e-03	1.57612356e-12	2.59879281e-02
5.71380436e-01	1.29320011e-01	8.78906286e-04	1.79910758e+00	2.02795824e+05	3.00000000e+02	2.16005671e+03	5.47266029e+06	1.61796813e+00	1.80895090e-05	2.86789613e-03	1.78313021e-12	2.51547699e-02
5.69999934e-01	1.29320011e-01	8.78906286e-04	1.87866448e+00	2.13419908e+05	3.00000000e+02	2.18543917e+03	5.68525419e+06	1.66316772e+00	1.80881238e-05	2.76879351e-03	2.01889100e-12	2.42515912e-02
5.68622500e-01	1.29320011e-01	8.78906286e-04	1.97950387e+00	2.26821597e+05	3.00000000e+02	2.20665181e+03	5.89305906e+06	1.71412279e+00	1.81025081e-05	2.66538975e-03	2.37316532e-12	2.33724951e-02
5.86769879e-01	1.29320011e-01	1.46484381e-03	2.01202411e+00	2.30627587e+05	3.00000000e+02	1.86830715e+03	5.85201175e+06	1.59239322e+00	1.80769853e-05	3.46719885e-03	2.00258368e-12	3.02569352e-02
5.85355252e-01	1.29320011e-01	1.46484381e-03	1.90305996e+00	2.16535304e+05	3.00000000e+02	1.91815433e+03	5.66578966e+06	1.56902501e+00	1.80789723e-05	3.40708598e-03	1.83866447e-12	2.97363513e-02
5.83943754e-01	1.29320011e-01	1.46484381e-03	1.81809709e+00	2.05672488e+05	3.00000000e+02	1.96259172e+03	5.52521532e+06	1.55130035e+00	1.80785346e-05	3.33767035e-03	1.72200951e-12	2.91428976e-02
5.82535386e-01	1.29320011e-01	1.46484381e-03	1.76259466e+00	1.98462394e+05	3.00000000e+02	1.98919088e+03	5.41765145e+06	1.53778198e+00	1.80782040e-05	3.25642105e-03	1.61553485e-12	2.83674599e-02
5.81130147e-01	1.29320011e-01	1.46484381e-03	1.73042779e+00	1.94025468e+05	3.00000000e+02	1.99856290e+03	5.32680651e+06	1.52728249e+00	1.80780622e-05	3.16728683e-03	1.48150541e-12	2.75414738e-02
5.79728007e-01	1.29320011e-01	1.46484381e-03	1.71198029e+00	1.91453870e+05	3.00000000e+02	2.01324483e+03	5.25540191e+06	1.52400804e+00	1.80861452e-05	3.07656232e-03	1.38844146e-12	2.69108259e-02
5.78328997e-01	1.29320011e-01	1.46484381e-03	1.69988336e+00	1.89771822e+05	3.00000000e+02	2.03863275e+03	5.21156595e+06	1.52770894e+00	1.80914775e-05	2.98790325e-03	1.37330820e-12	2.62553290e-02
5.76933116e-01	1.29320011e-01	1.46484381e-03	1.69258278e+00	1.88718169e+05	3.00000000e+02	2.05777173e+03	5.19112581e+06	1.53159584e+00	1.80911001e-05	2.90040222e-03	1.36119905e-12	2.55031541e-02
5.75540334e-01	1.29320011e-01	1.46484381e-03	1.69361073e+00	1.88716491e+05	3.00000000e+02	2.07187002e+03	5.19813116e+06	1.53782104e+00	1.80849723e-05	2.81341646e-03	1.32210251e-12	2.47012549e-02
5.74150622e-01	1.29320011e-01	1.46484381e-03	1.71034664e+00	1.90811073e+05	3.00000000e+02	2.10120254e+03	5.23060002e+06	1.55587073e+00	1.80899812e-05	2.72604364e-03	1.32295407e-12	2.39235051e-02
5.72763980e-01	1.29320011e-01	1.46484381e-03	1.74740980e+00	1.95617489e+05	3.00000000e+02	2.15408606e+03	5.30240396e+06	1.59100044e+00	1.81048198e-05	2.63664661e-03	1.44456775e-12	2.32174909e-02
5.71380437e-01	1.29320011e-01	1.46484381e-03	1.80523816e+00	2.03333963e+05	3.00000000e+02	2.20819400e+03	5.45574165e+06	1.63656760e+00	1.81128801e-05	2.54239073e-03	1.67514397e-12	2.24610215e-02
5.69999933e-01	1.29320011e-01	1.46484381e-03	1.88307478e+00	2.13750034e+05	3.00000000e+02	2.24158699e+03	5.66606562e+06	1.68420301e+00	1.81114299e-05	2.44074948e-03	1.95597368e-12	2.16328917e-02
5.68622500e-01	1.29320011e-01	1.46484381e-03	1.97804421e+00	2.26168308e+05	3.00000000e+02	2.24515686e+03	5.87636044e+06	1.72809899e+00	1.81054083e-05	2.33083385e-03	2.21895011e-12	2.06146618e-02
5.88187665e-01	1.29320011e-01	2.05078133e-03	2.11537123e+00	2.44028525e+05	3.00000000e+02	1.94946660e+03	6.05567609e+06	1.66681251e+00	1.80883953e-05	2.97714467e-03	2.08179192e-12	2.63931651e-02
5.86769879e-01	1.29320011e-01	2.05078133e-03	2.02341278e+00	2.31694353e+05	3.00000000e+02	1.94851252e+03	5.86598966e+06	1.62968479e+00	1.80894694e-05	2.93869471e-03	1.88961599e-12	2.60489758e-02
5.85355252e-01	1.29320011e-01	2.05078133e-03	1.92497668e+00	2.18839776e+05	3.00000000e+02	1.96929235e+03	5.68480112e+06	1.59799997e+00	1.80895042e-05	2.90606009e-03	1.71223349e-12	2.57230261e-02
5.83943754e-01	1.29320011e-01	2.05078133e-03	1.84017730e+00	2.07887272e+05	3.00000000e+02	1.99648147e+03	5.53408881e+06	1.57333794e+00	1.80873964e-05	2.86011992e-03	1.57572144e-12	2.52611957e-02
5.82535386e-01	1.29320011e-01	2.05078133e-03	1.77877612e+00	1.99905657e+05	3.00000000e+02	2.01534245e+03	5.41794033e+06	1.55450935e+00	1.80832851e-05	2.79574786e-03	1.44070931e-12	2.46400570e-02
5.81130147e-01	1.29320011e-01	2.05078133e-03	1.74034864e+00	1.94747697e+05	3.00000000e+02	2.03296689e+03	5.30888898e+06	1.54382960e+00	1.80892064e-05	2.71863510e-03	1.31793124e-12	2.39512225e-02
5.79728007e-01	1.29320011e-01	2.05078133e-03	1.71778046e+00	1.91686099e+05	3.00000000e+02	2.06238419e+03	5.22580529e+06	1.54368047e+00	1.81028436e-05	2.63651866e-03	1.26465409e-12	2.33054292e-02
5.78328997e-01	1.29320011e-01	2.05078133e-03	1.70391560e+00	1.89829052e+05	3.00000000e+02	2.09330243e+03	5.18329972e+06	1.54824043e+00	1.81107828e-05	2.55345022e-03	1.26010564e-12	2.26398305e-02
5.76933116e-01	1.29320011e-01	2.05078133e-03	1.69798588e+00	1.89015544e+05	3.00000000e+02	2.11663007e+03	5.17262056e+06	1.55407507e+00	1.81114459e-05	2.47053822e-03	1.25951656e-12	2.19671269e-02
5.75540334e-01	1.29320011e-01	2.05078133e-03	1.70195345e+00	1.89402226e+05	3.00000000e+02	2.13502543e+03	5.18134902e+06	1.56289562e+00	1.81084379e-05	2.38747969e-03	1.25218394e-12	2.12244221e-02
5.74150622e-01	1.29320011e-01	2.05078133e-03	1.71992735e+00	1.91513889e+05	3.00000000e+02	2.15218790e+03	5.21910417e+06	1.57794293e+00	1.81025373e-05	2.30207919e-03	1.23511908e-12	2.04080353e-02
5.72763979e-01	1.29320011e-01	2.05078133e-03	1.75604497e+00	1.96162343e+05	3.00000000e+02	2.18050494e+03	5.30463601e+06	1.60458530e+00	1.81058593e-05	2.21258002e-03	1.25022302e-12	1.96938436e-02
5.71380436e-01	1.29320011e-01	2.05078133e-03	1.81323560e+00	2.03851597e+05	3.00000000e+02	2.23675135e+03	5.45202167e+06	1.65022299e+00	1.81187794e-05	2.11808990e-03	1.41544255e-12	1.90397627e-02
5.69999933e-01	1.29320011e-01	2.05078133e-03	1.88880598e+00	2.13842917e+05	3.00000000e+02	2.28178151e+03	5.62824940e+06	1.70041939e+00	1.81263453e-05	2.01515482e-03	1.66234791e-12	1.81769450e-02
5.68622500e-01	1.29320011e-01	2.05078133e-03	1.97515702e+00	2.25168320e+05	3.00000000e+02	2.29144529e+03	5.81982333e+06	1.74270917e+00	1.81245086e-05	1.90305029e-03	1.86952344e-12	1.71373947e-02
5.89608640e-01	1.29320011e-01	2.63671891e-03	2.15194368e+00	2.48978787e+05	3.00000000e+02	2.08591613e+03	6.16603728e+06	1.73724034e+00	1.81067107e-05	2.42218694e-03	1.90617840e-12	2.18763441e-02
5.88187664e-01	1.29320011e-01	2.63671891e-03	2.10540921e+00	2.42609312e+05	3.00000000e+02	2.05684202e+03	6.06942950e+06	1.70648046e+00	1.81051865e-05	2.37851167e-03	1.81393287e-12	2.14584342e-02
5.86769879e-01	1.29320011e-01	2.63671891e-03	2.03449157e+00	2.32942891e+05	3.00000000e+02	2.04004322e+03	5.90848765e+06	1.67067546e+00	1.81046918e-05	2.36080271e-03	1.67652163e-12	2.12430172e-02
5.85355252e-01	1.29320011e-01	2.63671891e-03	1.95063088e+00	2.21693947e+05	3.00000000e+02	2.03757830e+03	5.72145451e+06	1.63489819e+00	1.81046271e-05	2.35048688e-03	1.53108620e-12	2.10787210e-02
5.83943754e-01	1.29320011e-01	2.63671891e-03	1.86795896e+00	2.10845373e+05	3.00000000e+02	2.04856858e+03	5.55312691e+06	1.60427689e+00	1.81036101e-05	2.32702346e-03	1.40263985e-12	2.07807506e-02
5.82535386e-01	1.29320011e-01	2.63671891e-03	1.80023139e+00	2.01975449e+05	3.00000000e+02	2.05983510e+03	5.41480020e+06	1.57955592e+00	1.81001004e-05	2.28197774e-03	1.26917706e-12	2.03084595e-02
5.81130147e-01	1.29320011e-01	2.63671891e-03	1.75393543e+00	1.95809465e+05	3.00000000e+02	2.07117354e+03	5.29513549e+06	1.56317248e+00	1.81027161e-05	2.21983503e-03	1.13399014e-12	1.98215301e-02
5.79728007e-01	1.29320011e-01	2.63671891e-03	1.72543807e+00	1.92073769e+05	3.00000000e+02	2.10221998e+03	5.21256852e+06	1.56110378e+00	1.81130918e-05	2.14925298e-03	1.07056744e-12	1.93593153e-02
5.78328996e-01	1.29320011e-01	2.63671891e-03	1.70909268e+00	1.90007154e+05	3.00000000e+02	2.14050428e+03	5.17524342e+06	1.56706001e+00	1.81213615e-05	2.07505919e-03	1.06798504e-12	1.87945121e-02
5.76933116e-01	1.29320011e-01	2.63671891e-03	1.70444059e+00	1.89404717e+05	3.00000000e+02	2.17113621e+03	5.16730110e+06	1.57573351e+00	1.81253873e-05	1.99945609e-03	1.07784497e-12	1.81335020e-02
5.75540334e-01	1.29320011e-01	2.63671891e-03	1.71060638e+00	1.90130185e+05	3.00000000e+02	2.19272113e+03	5.18694197e+06	1.58661928e+00	1.81229801e-05	1.92245137e-03	1.07296171e-12	1.74067161e-02
5.74150622e-01	1.29320011e-01	2.63671891e-03	1.73001335e+00	1.92609316e+05	3.00000000e+02	2.21794464e+03	5.23471764e+06	1.60455796e+00	1.81250938e-05	1.84254931e-03	1.07047124e-12	1.66700554e-02
5.72763980e-01	1.29320011e-01	2.63671891e-03	1.76677082e+00	1.97410791e+05	3.00000000e+02	2.25722310e+03	5.31669232e+06	1.63481126e+00	1.81361596e-05	1.75755571e-03	1.11662683e-12	1.59561069e-02
5.71380436e-01	1.29320011e-01	2.63671891e-03	1.82221619e+00	2.04662307e+05	3.00000000e+02	2.30247762e+03	5.44270215e+06	1.67594168e+00	1.81457262e-05	1.66526548e-03	1.23136406e-12	1.52263070e-02
5.69999934e-01	1.29320011e-01	2.63671891e-03	1.89090468e+00	2.13682978e+05	3.00000000e+02	2.33153459e+03	5.60612790e+06	1.71778017e+00	1.81477906e-05	1.56420977e-03	1.37316075e-12	1.43976464e-02
5.68622500e-01	1.29320011e-01	2.63671891e-03	1.96613179e+00	2.23409383e+05	3.00000000e+02	2.33363707e+03	5.76716853e+06	1.75294436e+00	1.81422202e-05	1.45595965e-03	1.48660732e-12	1.34005468e-02
5.89608640e-01	1.29320011e-01	3.22265644e-03	2.12395120e+00	2.45191781e+05	3.00000000e+02	2.18849711e+03	6.15519895e+06	1.76654024e+00	1.81199635e-05	1.84041086e-03	1.50784903e-12	1.69135438e-02
5.88187665e-01	1.29320011e-01	3.22265643e-03	2.09543774e+00	2.41107369e+05	3.00000000e+02	2.15935575e+03	6.06847444e+06	1.74258372e+00	1.81234730e-05	1.80991939e-03	1.46175514e-12	1.65994637e-02
5.86769879e-01	1.29320011e-01	3.22265643e-03	2.04640831e+00	2.34163110e+05	3.00000000e+02	2.12893670e+03	5.92478334e+06	1.70972412e+00	1.81253782e-05	1.80306060e-03	1.36936282e-12	1.65100285e-02
5.85355252e-01	1.29320011e-01	3.22265644e-03	1.97836557e+00	2.24740439e+05	3.00000000e+02	2.10341838e+03	5.74047158e+06	1.67092225e+00	1.81257280e-05	1.80481480e-03	1.24316292e-12	1.64914926e-02
5.83943754e-01	1.29320011e-01	3.22265643e-03	1.90064794e+00	2.14246346e+05	3.00000000e+02	2.09868494e+03	5.54428511e+06	1.63577991e+00	1.81273863e-05	1.79834422e-03	1.11860281e-12	1.64123026e-02
5.82535386e-01	1.29320011e-01	3.22265644e-03	1.82829015e+00	2.04768387e+05	3.00000000e+02	2.11822236e+03	5.38037388e+06	1.61140906e+00	1.81316835e-05	1.77347378e-03	1.02148695e-12	1.61980324e-02
5.81130147e-01	1.29320011e-01	3.22265643e-03	1.77307556e+00	1.97723056e+05	3.00000000e+02	2.15032691e+03	5.26903544e+06	1.59833653e+00	1.81377428e-05	1.73025583e-03	9.61327226e-13	1.58472141e-02
5.79728007e-01	1.29320011e-01	3.22265643e-03	1.73685829e+00	1.93157407e+05	3.00000000e+02	2.18327189e+03	5.20068097e+06	1.59348556e+00	1.81436044e-05	1.67406068e-03	9.28988758e-13	1.53932230e-02
5.78328996e-01	1.29320011e-01	3.22265644e-03	1.71707130e+00	1.90656865e+05	3.00000000e+02	2.21271634e+03	5.16540001e+06	1.59470083e+00	1.81473582e-05	1.61046574e-03	9.11044834e-13	1.48786431e-02
5.76933116e-01	1.29320011e-01	3.22265643e-03	1.71271196e+00	1.90084279e+05	3.00000000e+02	2.23741683e+03	5.16454628e+06	1.60161656e+00	1.81464911e-05	1.54339744e-03	9.00869243e-13	1.43347479e-02
5.75540334e-01	1.29320011e-01	3.22265643e-03	1.72208155e+00	1.91190075e+05	3.00000000e+02	2.25744987e+03	5.18775120e+06	1.61345832e+00	1.81431947e-05	1.47385641e-03	8.90682537e-13	1.36864637e-02
5.74150622e-01	1.29320011e-01	3.22265644e-03	1.74381704e+00	1.93814616e+05	3.00000000e+02	2.27345371e+03	5.23538867e+06	1.62996319e+00	1.81364096e-05	1.40093094e-03	8.69061603e-13	1.29790720e-02
5.72763980e-01	1.29320011e-01	3.22265644e-03	1.77902475e+00	1.98383078e+05	3.00000000e+02	2.29619119e+03	5.32804123e+06	1.65463898e+00	1.81354094e-05	1.32288148e-03	8.55161066e-13	1.23203972e-02
5.71380437e-01	1.29320011e-01	3.22265643e-03	1.83049269e+00	2.05268574e+05	3.00000000e+02	2.34156561e+03	5.45126316e+06	1.69348488e+00	1.81506189e-05	1.23816567e-03	9.16728844e-13	1.17117899e-02
5.69999933e-01	1.29320011e-01	3.22265643e-03	1.89078885e+00	2.13098115e+05	3.00000000e+02	2.37845261e+03	5.56847561e+06	1.73346422e+00	1.81630794e-05	1.14620898e-03	1.01091121e-12	1.09229566e-02
5.68622500e-01	1.29320011e-01	3.22265643e-03	1.95171542e+00	2.20988507e+05	3.00000000e+02	2.38950044e+03	5.68946090e+06	1.76479272e+00	1.81678568e-05	1.05040739e-03	1.07647898e-12	1.00022917e-02
5.89608640e-01	1.29320011e-01	3.80859396e-03	2.09713173e+00	2.41194597e+05	3.00000000e+02	2.30378816e+03	6.10248119e+06	1.79973824e+00	1.81326124e-05	1.34269734e-03	1.13763131e-12	1.26526132e-02
5.88187664e-01	1.29320011e-01	3.80859396e-03	2.08522449e+00	2.39503275e+05	3.00000000e+02	2.27907307e+03	6.06915060e+06	1.78486853e+00	1.81336362e-05	1.32102292e-03	1.13507384e-12	1.24478868e-02
5.86769879e-01	1.29320011e-01	3.80859396e-03	2.05490089e+00	2.35212288e+05	3.00000000e+02	2.23939504e+03	5.98205195e+06	1.75631536e+00	1.81340117e-05	1.31789805e-03	1.08895585e-12	1.23927250e-02
5.85355252e-01	1.29320011e-01	3.80859396e-03	2.00173700e+00	2.27731937e+05	3.00000000e+02	2.19531986e+03	5.82843476e+06	1.71634474e+00	1.81335771e-05	1.32308887e-03	1.00135889e-12	1.24012161e-02
5.83943754e-01	1.29320011e-01	3.80859396e-03	1.93071507e+00	2.17927886e+05	3.00000000e+02	2.16464694e+03	5.63110365e+06	1.67379636e+00	1.81336659e-05	1.32483877e-03	8.95311048e-13	1.23936145e-02
5.82535386e-01	1.29320011e-01	3.80859396e-03	1.85739254e+00	2.08055057e+05	3.00000000e+02	2.16091399e+03	5.43909944e+06	1.64009165e+00	1.81358564e-05	1.31380557e-03	7.96339493e-13	1.23180417e-02
5.81130147e-01	1.29320011e-01	3.80859396e-03	1.79571595e+00	2.00051138e+05	3.00000000e+02	2.18248445e+03	5.30015769e+06	1.62024650e+00	1.81404854e-05	1.28689094e-03	7.25999632e-13	1.21537898e-02
5.79728007e-01	1.29320011e-01	3.80859396e-03	1.75232894e+00	1.94659366e+05	3.00000000e+02	2.22054123e+03	5.22420110e+06	1.61385592e+00	1.81471352e-05	1.24660662e-03	6.93896258e-13	1.18840136e-02
5.78328996e-01	1.29320011e-01	3.80859396e-03	1.72821954e+00	1.91772003e+05	3.00000000e+02	2.26286494e+03	5.19207112e+06	1.61723957e+00	1.81547390e-05	1.19708083e-03	6.88788653e-13	1.15000573e-02
5.76933116e-01	1.29320011e-01	3.80859396e-03	1.72282024e+00	1.91196252e+05	3.00000000e+02	2.29975536e+03	5.19212759e+06	1.62720594e+00	1.81615905e-05	1.14163543e-03	6.92929435e-13	1.10156118e-02
5.75540334e-01	1.29320011e-01	3.80859396e-03	1.73314248e+00	1.92527127e+05	3.00000000e+02	2.32784309e+03	5.21732582e+06	1.64161441e+00	1.81659630e-05	1.08191257e-03	6.93416989e-13	1.04458539e-02
5.74150622e-01	1.29320011e-01	3.80859396e-03	1.75700758e+00	1.95507861e+05	3.00000000e+02	2.34877246e+03	5.26625654e+06	1.66023908e+00	1.81665415e-05	1.01805967e-03	6.84965726e-13	9.81268466e-03
5.72763980e-01	1.29320011e-01	3.80859396e-03	1.79276358e+00	1.99982936e+05	3.00000000e+02	2.36713714e+03	5.33347056e+06	1.68348021e+00	1.81677357e-05	9.49671562e-04	6.73280750e-13	9.14949898e-03
5.71380436e-01	1.29320011e-01	3.80859396e-03	1.83760276e+00	2.05707269e+05	3.00000000e+02	2.38832501e+03	5.42022125e+06	1.71150655e+00	1.81731229e-05	8.76048522e-04	6.74455053e-13	8.48934020e-03
5.69999934e-01	1.29320011e-01	3.80859396e-03	1.88474047e+00	2.11748798e+05	3.00000000e+02	2.41180576e+03	5.50801541e+06	1.74108771e+00	1.81807539e-05	7.97730984e-04	6.96560569e-13	7.84822568e-03
5.68622500e-01	1.29320011e-01	3.80859396e-03	1.92852654e+00	2.17461135e+05	3.00000000e+02	2.42655949e+03	5.60242032e+06	1.76613061e+00	1.81853247e-05	7.19091850e-04	7.20970158e-13	7.20085631e-03
5.89608640e-01	1.29320011e-01	4.39453149e-03	2.07078865e+00	2.37349631e+05	3.00000000e+02	2.40575146e+03	6.01395228e+06	1.82443523e+00	1.81635367e-05	9.43482471e-04	8.09853658e-13	9.45906956e-03
5.88187665e-01	1.29320011e-01	4.39453149e-03	2.07483578e+00	2.37869668e+05	3.00000000e+02	2.38643298e+03	6.02046494e+06	1.81879836e+00	1.81642524e-05	9.26842560e-04	8.22573749e-13	9.27589259e-03
5.86769879e-01	1.29320011e-01	4.39453149e-03	2.06236446e+00	2.35904127e+05	3.00000000e+02	2.34710889e+03	5.96308807e+06	1.79828054e+00	1.81646686e-05	9.23626243e-04	8.00293352e-13	9.21868534e-03
5.85355252e-01	1.29320011e-01	4.39453149e-03	2.02407031e+00	2.30347680e+05	3.00000000e+02	2.30094539e+03	5.83456437e+06	1.76386871e+00	1.81649954e-05	9.28069770e-04	7.47018115e-13	9.22330360e-03
5.83943754e-01	1.29320011e-01	4.39453148e-03	1.96155165e+00	2.21676904e+05	3.00000000e+02	2.26572883e+03	5.65917081e+06	1.72302541e+00	1.81655166e-05	9.33024077e-04	6.81512372e-13	9.21553250e-03
5.82535386e-01	1.29320011e-01	4.39453148e-03	1.88886908e+00	2.11983264e+05	3.00000000e+02	2.25307673e+03	5.48623584e+06	1.68599449e+00	1.81663789e-05	9.30970950e-04	6.20563775e-13	9.12958835e-03
5.81130147e-01	1.29320011e-01	4.39453148e-03	1.82295302e+00	2.03426083e+05	3.00000000e+02	2.26067100e+03	5.34658995e+06	1.65899897e+00	1.81675305e-05	9.16893452e-04	5.70679340e-13	8.93977829e-03
5.79728007e-01	1.29320011e-01	4.39453148e-03	1.77433447e+00	1.97228928e+05	3.00000000e+02	2.28233704e+03	5.24999085e+06	1.64427751e+00	1.81705516e-05	8.90500711e-04	5.33796883e-13	8.68050305e-03
5.78328996e-01	1.29320011e-01	4.39453149e-03	1.74584046e+00	1.93703502e+05	3.00000000e+02	2.31522020e+03	5.20354931e+06	1.64234732e+00	1.81747740e-05	8.54240819e-04	5.13631279e-13	8.37538437e-03
5.76933116e-01	1.29320011e-01	4.39453148e-03	1.73786040e+00	1.92823323e+05	3.00000000e+02	2.35056869e+03	5.20374923e+06	1.65066236e+00	1.81790535e-05	8.10675658e-04	5.06067941e-13	8.01456167e-03
5.75540334e-01	1.29320011e-01	4.39453148e-03	1.74711367e+00	1.94089803e+05	3.00000000e+02	2.38058561e+03	5.23484809e+06	1.66523418e+00	1.81828838e-05	7.61654765e-04	5.01569265e-13	7.60766234e-03
5.74150622e-01	1.29320011e-01	4.39453149e-03	1.77006984e+00	1.97043241e+05	3.00000000e+02	2.40272039e+03	5.28897775e+06	1.68368553e+00	1.81853405e-05	7.08030091e-04	4.94638937e-13	7.16495704e-03
5.72763980e-01	1.29320011e-01	4.39453149e-03	1.80352359e+00	2.01235141e+05	3.00000000e+02	2.41581615e+03	5.35244017e+06	1.70402658e+00	1.81866238e-05	6.50311499e-04	4.84074976e-13	6.65209788e-03
5.71380437e-01	1.29320011e-01	4.39453149e-03	1.84022913e+00	2.05770349e+05	3.00000000e+02	2.42021610e+03	5.41315725e+06	1.72284440e+00	1.81866440e-05	5.89328385e-04	4.69535854e-13	6.06261758e-03
5.69999933e-01	1.29320011e-01	4.39453148e-03	1.87226571e+00	2.09700606e+05	3.00000000e+02	2.42204580e+03	5.46410109e+06	1.73859647e+00	1.81849336e-05	5.26925395e-04	4.53898764e-13	5.44057948e-03
5.88187664e-01	1.29320011e-01	4.98046889e-03	2.06259236e+00	2.36102531e+05	3.00000000e+02	2.46410015e+03	5.98844169e+06	1.84052061e+00	1.81857323e-05	6.26891523e-04	5.72814120e-13	6.69596507e-03
5.86769879e-01	1.29320011e-01	4.98046889e-03	2.06484416e+00	2.36088201e+05	3.00000000e+02	2.42549168e+03	5.96023547e+06	1.82703255e+00	1.81858183e-05	6.21714951e-04	5.63357780e-13	6.63535457e-03
5.85355252e-01	1.29320011e-01	4.98046889e-03	2.04060051e+00	2.32345551e+05	3.00000000e+02	2.37700484e+03	5.85595030e+06	1.79802382e+00	1.81858742e-05	6.22924560e-04	5.28701686e-13	6.63067224e-03
5.83943754e-01	1.29320011e-01	4.98046889e-03	1.98954313e+00	2.25081093e+05	3.00000000e+02	2.33580915e+03	5.69587528e+06	1.75993175e+00	1.81859138e-05	6.26847427e-04	4.83062667e-13	6.65085953e-03
5.82535386e-01	1.29320011e-01	4.98046889e-03	1.92282772e+00	2.16043223e+05	3.00000000e+02	2.31518058e+03	5.52618225e+06	1.72251025e+00	1.81859672e-05	6.28447679e-04	4.40993444e-13	6.64974619e-03
5.81130147e-01	1.29320011e-01	4.98046889e-03	1.85672320e+00	2.07441545e+05	3.00000000e+02	2.31751411e+03	5.38865958e+06	1.69348460e+00	1.81860810e-05	6.22747161e-04	4.09329690e-13	6.57712756e-03
5.79728007e-01	1.29320011e-01	4.98046889e-03	1.80410136e+00	2.00763940e+05	3.00000000e+02	2.33413685e+03	5.29403049e+06	1.67527879e+00	1.81862070e-05	6.07293123e-04	3.86303517e-13	6.40395677e-03
5.78328997e-01	1.29320011e-01	4.98046889e-03	1.77123557e+00	1.96663537e+05	3.00000000e+02	2.35738965e+03	5.24300070e+06	1.66820440e+00	1.81861254e-05	5.82392477e-04	3.67903648e-13	6.13163928e-03
5.76933116e-01	1.29320011e-01	4.98046889e-03	1.75972135e+00	1.95266663e+05	3.00000000e+02	2.38160300e+03	5.23352578e+06	1.67134731e+00	1.81855117e-05	5.49737306e-04	3.52240329e-13	5.78337488e-03
5.75540334e-01	1.29320011e-01	4.98046889e-03	1.76593964e+00	1.96046146e+05	3.00000000e+02	2.40041223e+03	5.25142430e+06	1.68102880e+00	1.81840779e-05	5.11289259e-04	3.35746217e-13	5.38804504e-03
5.74150622e-01	1.29320011e-01	4.98046889e-03	1.78460831e+00	1.98369106e+05	3.00000000e+02	2.41177089e+03	5.29046746e+06	1.69411176e+00	1.81816385e-05	4.68564663e-04	3.16275476e-13	4.97902132e-03
5.72763980e-01	1.29320011e-01	4.98046889e-03	1.81172824e+00	2.01811997e+05	3.00000000e+02	2.41975182e+03	5.34110944e+06	1.70929417e+00	1.81865670e-05	4.22947744e-04	3.00036737e-13	4.60166807e-03
5.71380436e-01	1.29320011e-01	4.98046889e-03	1.83773903e+00	2.04960528e+05	3.00000000e+02	2.42453424e+03	5.36845647e+06	1.72259960e+00	1.81931263e-05	3.76088289e-04	2.87017333e-13	4.19875341e-03
5.69999934e-01	1.29320011e-01	4.98046889e-03	1.85449205e+00	2.07003282e+05	3.00000000e+02	2.42633561e+03	5.38752584e+06	1.73051608e+00	1.81990149e-05	3.30493387e-04	2.72659928e-13	3.77189247e-03
5.88187664e-01	1.29320011e-01	5.56640653e-03	2.05042804e+00	2.34183283e+05	3.00000000e+02	2.50075047e+03	5.95740415e+06	1.84856388e+00	1.81868959e-05	4.07823210e-04	3.65779277e-13	4.64248188e-03
5.86769879e-01	1.29320011e-01	5.56640653e-03	2.06358709e+00	2.35711981e+05	3.00000000e+02	2.46742203e+03	5.95954865e+06	1.84197855e+00	1.81879666e-05	4.01280043e-04	3.64268238e-13	4.57512232e-03
5.85355252e-01	1.29320011e-01	5.56640653e-03	2.05152570e+00	2.33618934e+05	3.00000000e+02	2.41999385e+03	5.88312373e+06	1.81880628e+00	1.81884112e-05	3.99458138e-04	3.44379689e-13	4.54248147e-03
5.83943754e-01	1.29320011e-01	5.56640653e-03	2.01289012e+00	2.27932828e+05	3.00000000e+02	2.37415300e+03	5.74353736e+06	1.78445218e+00	1.81884239e-05	4.00803395e-04	3.14147663e-13	4.53507742e-03
5.82535386e-01	1.29320011e-01	5.56640653e-03	1.95599041e+00	2.20021454e+05	3.00000000e+02	2.34369774e+03	5.57974341e+06	1.74773796e+00	1.81883557e-05	4.02497080e-04	2.84056760e-13	4.53357496e-03
5.81130147e-01	1.29320011e-01	5.56640653e-03	1.89461031e+00	2.11885110e+05	3.00000000e+02	2.33631533e+03	5.43780021e+06	1.71735455e+00	1.81886853e-05	4.00874174e-04	2.60840933e-13	4.51062090e-03
5.79728007e-01	1.29320011e-01	5.56640653e-03	1.84151287e+00	2.05097142e+05	3.00000000e+02	2.34818101e+03	5.33679858e+06	1.69730574e+00	1.81898318e-05	3.92911065e-04	2.45419293e-13	4.43999897e-03
5.78328997e-01	1.29320011e-01	5.56640653e-03	1.80481875e+00	2.00534800e+05	3.00000000e+02	2.37086976e+03	5.27867165e+06	1.68820948e+00	1.81919774e-05	3.77348438e-04	2.34646853e-13	4.30436773e-03
5.76933116e-01	1.29320011e-01	5.56640653e-03	1.78777143e+00	1.98473031e+05	3.00000000e+02	2.39437855e+03	5.25736735e+06	1.68824429e+00	1.81950272e-05	3.54628944e-04	2.24035973e-13	4.09751260e-03
5.75540334e-01	1.29320011e-01	5.56640653e-03	1.78811494e+00	1.98537578e+05	3.00000000e+02	2.41113373e+03	5.25980611e+06	1.69396724e+00	1.81986409e-05	3.26414855e-04	2.11111426e-13	3.82627219e-03
5.74150622e-01	1.29320011e-01	5.56640653e-03	1.80058873e+00	2.00018177e+05	3.00000000e+02	2.41806687e+03	5.27097857e+06	1.70195602e+00	1.82024012e-05	2.94618987e-04	1.95776979e-13	3.50420535e-03
5.72763979e-01	1.29320011e-01	5.56640653e-03	1.81768721e+00	2.01974319e+05	3.00000000e+02	2.41537781e+03	5.27792227e+06	1.70873171e+00	1.82059703e-05	2.61157771e-04	1.79727901e-13	3.14119742e-03
5.71380436e-01	1.29320011e-01	5.56640653e-03	1.82977431e+00	2.03280660e+05	3.00000000e+02	2.40923541e+03	5.27422854e+06	1.71192609e+00	1.82091203e-05	2.27944586e-04	1.65212017e-13	2.74277037e-03
5.69999934e-01	1.29320011e-01	5.56640653e-03	1.83163066e+00	2.03372880e+05	3.00000000e+02	2.40829238e+03	5.26302119e+06	1.71231064e+00	1.82106983e-05	1.97317778e-04	1.53782558e-13	2.32958470e-03
5.88187664e-01	1.29320011e-01	6.15234417e-03	2.04024691e+00	2.32240372e+05	3.00000000e+02	2.52164935e+03	5.87111343e+06	1.84988696e+00	1.82043056e-05	2.55857047e-04	2.22478459e-13	3.37514385e-03
5.86769879e-01	1.29320011e-01	6.15234417e-03	2.06091016e+00	2.34867246e+05	3.00000000e+02	2.49631765e+03	5.90006913e+06	1.84978821e+00	1.82050989e-05	2.49238141e-04	2.23674070e-13	3.28477223e-03
5.85355252e-01	1.29320011e-01	6.15234417e-03	2.05893241e+00	2.34217068e+05	3.00000000e+02	2.45614324e+03	5.85500225e+06	1.83391441e+00	1.82055761e-05	2.45787801e-04	2.13957437e-13	3.22701120e-03