VARIABLES ="X" "Y" "Z" "rho" "press" "temp" "tau_wall" "qdot" "yplus" "muLam" "ZMean" "ZVar" "CMean" 
Zone T ="wall" I = 7342 , F = point
4.22644735e-01	1.19520001e-01	3.22265644e-03	1.39883438e+00	4.09650075e+05	3.00000000e+02	-9.82994090e+01	1.07992759e+07	7.27254926e-01	1.00291082e-05	1.22554026e-01	4.78599068e-08	2.31394186e-01
4.23697397e-01	1.19520001e-01	2.63671891e-03	1.22401469e+00	4.13781015e+05	3.00000000e+02	-5.68765469e+01	1.30880990e+07	5.28835175e-01	9.81363668e-06	1.43125726e-01	4.37769654e-08	2.26276726e-01
4.22644734e-01	1.19520001e-01	2.63671891e-03	1.23101093e+00	4.08234658e+05	3.00000000e+02	-6.76422087e+01	1.17311049e+07	5.79907901e-01	9.78748711e-06	1.46166447e-01	4.96431254e-08	2.25458334e-01
4.23697397e-01	1.19520001e-01	2.05078133e-03	1.13066455e+00	4.13031225e+05	3.00000000e+02	-3.97176596e+01	1.28385543e+07	4.34856322e-01	9.58524699e-06	1.63200107e-01	4.36236417e-08	2.21083833e-01
4.22644735e-01	1.19520001e-01	2.05078133e-03	1.11686906e+00	4.08828904e+05	3.00000000e+02	-4.11673665e+01	1.26334872e+07	4.40290629e-01	9.57918624e-06	1.65516403e-01	4.80196538e-08	2.20460524e-01
4.23697397e-01	1.19520001e-01	1.46484381e-03	1.04058628e+00	4.13308536e+05	3.00000000e+02	5.75901570e+01	1.34311649e+07	5.13117882e-01	9.38396572e-06	1.82088088e-01	4.62923656e-08	2.15687266e-01
4.22644735e-01	1.19520001e-01	1.46484381e-03	1.02186508e+00	4.10140787e+05	3.00000000e+02	3.76041713e+01	1.38257490e+07	4.10844823e-01	9.38485044e-06	1.83197511e-01	4.76672484e-08	2.15456036e-01
4.23697397e-01	1.19520001e-01	8.78906286e-04	9.57257267e-01	4.14006931e+05	3.00000000e+02	9.72493991e+01	1.24864486e+07	6.61834693e-01	9.06773157e-06	2.11490534e-01	8.04948326e-08	2.05400133e-01
4.22644735e-01	1.19520001e-01	8.78906286e-04	9.62313712e-01	4.09898119e+05	3.00000000e+02	7.71978763e+01	1.19360482e+07	5.90621462e-01	9.07699662e-06	2.10629465e-01	7.00626978e-08	2.05820056e-01
4.23697397e-01	1.19520001e-01	2.92968761e-04	7.90893128e-01	4.12645027e+05	3.00000000e+02	1.85784983e+02	1.08058944e+07	9.03108968e-01	8.34861501e-06	2.88987290e-01	5.36376868e-07	1.70402620e-01
4.22644734e-01	1.19520001e-01	2.92968761e-04	7.70275151e-01	4.09137496e+05	3.00000000e+02	1.74511144e+02	9.59844688e+06	8.79248236e-01	8.20187988e-06	3.06185526e-01	6.04779521e-07	1.62398446e-01
4.45249379e-01	1.19520001e-01	9.08203144e-03	2.65830581e+00	4.35103451e+05	3.00000000e+02	4.48132609e+02	7.85974596e+06	1.95484434e+00	1.09820634e-05	9.33040772e-03	1.92652452e-10	7.89349395e-02
4.44148869e-01	1.19520001e-01	9.08203144e-03	2.71925840e+00	4.38337987e+05	3.00000000e+02	4.11637104e+02	7.56855644e+06	1.89297253e+00	1.09933124e-05	8.93883787e-03	2.17685532e-10	7.58899794e-02
4.43050816e-01	1.19520001e-01	9.08203144e-03	2.82769885e+00	4.39352538e+05	3.00000000e+02	3.86275632e+02	6.93036938e+06	1.87097936e+00	1.09871897e-05	8.47788436e-03	2.63130860e-10	7.23155440e-02
4.41955209e-01	1.19520001e-01	9.08203144e-03	2.87902011e+00	4.44094024e+05	3.00000000e+02	3.46898373e+02	6.79927366e+06	1.78709992e+00	1.09992996e-05	8.00001784e-03	2.60128186e-10	6.85948454e-02
4.40862015e-01	1.19520001e-01	9.08203144e-03	3.01521322e+00	4.44751105e+05	3.00000000e+02	3.33408205e+02	6.06961893e+06	1.79392092e+00	1.09934561e-05	7.54993184e-03	2.89771453e-10	6.50889920e-02
4.39771250e-01	1.19520001e-01	9.08203144e-03	2.96591715e+00	4.49066679e+05	3.00000000e+02	3.09341173e+02	6.50205550e+06	1.71209407e+00	1.10042674e-05	7.17473287e-03	2.62602126e-10	6.21302614e-02
4.38682899e-01	1.19520001e-01	9.08203144e-03	3.12347196e+00	4.49217338e+05	3.00000000e+02	3.17640619e+02	5.65831104e+06	1.77989820e+00	1.10073314e-05	6.88514086e-03	2.93078257e-10	5.98641043e-02
4.37596962e-01	1.19520001e-01	9.08203144e-03	3.17080523e+00	4.47045667e+05	3.00000000e+02	3.21145237e+02	5.36665588e+06	1.80401368e+00	1.10023659e-05	6.62971107e-03	3.03904791e-10	5.78297361e-02
4.36513454e-01	1.19520001e-01	9.08203144e-03	3.03618584e+00	4.45616259e+05	3.00000000e+02	3.07787566e+02	6.01221238e+06	1.72789655e+00	1.10042984e-05	6.40176195e-03	2.79942599e-10	5.59844034e-02
4.35432360e-01	1.19520001e-01	9.08203144e-03	3.07656870e+00	4.46606242e+05	3.00000000e+02	3.04553655e+02	5.82603600e+06	1.72863596e+00	1.10141772e-05	6.21245997e-03	2.59866330e-10	5.44678165e-02
4.34353665e-01	1.19520001e-01	9.08203144e-03	3.16224143e+00	4.45393379e+05	3.00000000e+02	3.15340349e+02	5.34634788e+06	1.78301595e+00	1.10159623e-05	6.06607928e-03	2.66468365e-10	5.32796263e-02
4.33277353e-01	1.19520001e-01	9.08203144e-03	3.20166172e+00	4.43111738e+05	3.00000000e+02	3.25190520e+02	5.08039137e+06	1.82168501e+00	1.10172641e-05	5.95397684e-03	2.89807229e-10	5.23372704e-02
4.32203412e-01	1.19520001e-01	9.08203144e-03	3.21154891e+00	4.40231285e+05	3.00000000e+02	3.35261242e+02	4.93986913e+06	1.85265182e+00	1.10165478e-05	5.85465231e-03	3.28718605e-10	5.14823169e-02
4.31131870e-01	1.19520001e-01	9.08203144e-03	3.19003492e+00	4.35991683e+05	3.00000000e+02	3.46000549e+02	4.90450312e+06	1.87624058e+00	1.10138200e-05	5.73078014e-03	3.55383815e-10	5.04253949e-02
4.30062726e-01	1.19520001e-01	9.08203143e-03	3.04188804e+00	4.31716678e+05	3.00000000e+02	3.49308205e+02	5.48251585e+06	1.84106096e+00	1.10128119e-05	5.55054415e-03	3.72444641e-10	4.89247184e-02
4.28995937e-01	1.19520001e-01	9.08203144e-03	2.99076165e+00	4.32297385e+05	3.00000000e+02	3.35032573e+02	5.75930893e+06	1.78596260e+00	1.10243360e-05	5.30701532e-03	3.70752029e-10	4.69712975e-02
4.27931517e-01	1.19520001e-01	9.08203144e-03	3.16722870e+00	4.27139700e+05	3.00000000e+02	3.55285127e+02	4.70968642e+06	1.89174824e+00	1.10294859e-05	5.01821663e-03	4.17084995e-10	4.46967554e-02
4.26869452e-01	1.19520001e-01	9.08203144e-03	3.17186828e+00	4.22073420e+05	3.00000000e+02	3.51291841e+02	4.54703572e+06	1.88336083e+00	1.10242348e-05	4.68765743e-03	3.95825698e-10	4.20572591e-02
4.25809741e-01	1.19520001e-01	9.08203144e-03	3.04640558e+00	4.22729068e+05	3.00000000e+02	3.14175461e+02	5.15805429e+06	1.74370671e+00	1.10356251e-05	4.37344797e-03	3.07380328e-10	3.95606287e-02
4.24752399e-01	1.19520001e-01	9.08203143e-03	3.23064024e+00	4.18296553e+05	3.00000000e+02	3.24938405e+02	4.15923946e+06	1.82506962e+00	1.10422041e-05	4.11481396e-03	2.97721050e-10	3.75159564e-02
4.23697397e-01	1.19520001e-01	9.08203144e-03	3.32146319e+00	4.13682217e+05	3.00000000e+02	3.20161370e+02	3.65603615e+06	1.83689058e+00	1.10422172e-05	3.89714393e-03	2.85944162e-10	3.57434439e-02
4.45249379e-01	1.19520001e-01	8.49609403e-03	2.41271158e+00	4.34537012e+05	3.00000000e+02	5.86441441e+02	9.77776498e+06	2.13118957e+00	1.09782555e-05	1.37093121e-02	1.24189179e-10	1.11290819e-01
4.44148869e-01	1.19520001e-01	8.49609403e-03	2.42115152e+00	4.36945004e+05	3.00000000e+02	5.53829964e+02	9.81908039e+06	2.07465909e+00	1.09784961e-05	1.37022969e-02	1.37794496e-10	1.11190513e-01
4.43050816e-01	1.19520001e-01	8.49609403e-03	2.43904906e+00	4.39587334e+05	3.00000000e+02	5.16196174e+02	9.78886096e+06	2.01014747e+00	1.09794383e-05	1.36500975e-02	1.50396324e-10	1.10745019e-01
4.41955209e-01	1.19520001e-01	8.49609403e-03	2.46580047e+00	4.42522760e+05	3.00000000e+02	4.77026968e+02	9.69436327e+06	1.94304772e+00	1.09788626e-05	1.35177100e-02	1.63344203e-10	1.09754589e-01
4.40862014e-01	1.19520001e-01	8.49609403e-03	2.48781184e+00	4.45062882e+05	3.00000000e+02	4.41709048e+02	9.62471288e+06	1.87844531e+00	1.09766229e-05	1.32823578e-02	1.79730790e-10	1.08036909e-01
4.39771250e-01	1.19520001e-01	8.49609403e-03	2.50729389e+00	4.46828691e+05	3.00000000e+02	4.15082385e+02	9.53613915e+06	1.82775574e+00	1.09784746e-05	1.29617396e-02	2.05498819e-10	1.05583884e-01
4.38682898e-01	1.19520001e-01	8.49609403e-03	2.52010213e+00	4.47734987e+05	3.00000000e+02	3.97228441e+02	9.46325331e+06	1.79217057e+00	1.09809593e-05	1.26029698e-02	2.42689639e-10	1.02931949e-01
4.37596962e-01	1.19520001e-01	8.49609403e-03	2.51917464e+00	4.47287808e+05	3.00000000e+02	3.83679665e+02	9.44187422e+06	1.76147650e+00	1.09780969e-05	1.22503284e-02	2.92827644e-10	1.00238872e-01
4.36513453e-01	1.19520001e-01	8.49609403e-03	2.51457103e+00	4.45999932e+05	3.00000000e+02	3.70236373e+02	9.41231630e+06	1.72802326e+00	1.09827803e-05	1.19250947e-02	3.46065887e-10	9.76814377e-02
4.35432360e-01	1.19520001e-01	8.49609403e-03	2.53093251e+00	4.44933059e+05	3.00000000e+02	3.57871707e+02	9.22086224e+06	1.70420044e+00	1.09843326e-05	1.16456251e-02	4.04555711e-10	9.54899725e-02
4.34353664e-01	1.19520001e-01	8.49609403e-03	2.52668213e+00	4.43470347e+05	3.00000000e+02	3.45189067e+02	9.18415642e+06	1.67272269e+00	1.09817172e-05	1.14315896e-02	4.62311444e-10	9.37593994e-02
4.33277353e-01	1.19520001e-01	8.49609403e-03	2.51456552e+00	4.41586102e+05	3.00000000e+02	3.44383164e+02	9.18695221e+06	1.66670099e+00	1.09820932e-05	1.13112973e-02	5.13868259e-10	9.26956956e-02
4.32203412e-01	1.19520001e-01	8.49609403e-03	2.48695720e+00	4.39118976e+05	3.00000000e+02	3.50840778e+02	9.28960773e+06	1.67283506e+00	1.09831383e-05	1.12831388e-02	5.76601052e-10	9.22923548e-02
4.31131869e-01	1.19520001e-01	8.49609403e-03	2.45044630e+00	4.35987367e+05	3.00000000e+02	3.59879848e+02	9.43770958e+06	1.68165830e+00	1.09838347e-05	1.13112620e-02	6.59350846e-10	9.22962790e-02
4.30062726e-01	1.19520001e-01	8.49609403e-03	2.41516272e+00	4.32404197e+05	3.00000000e+02	3.62062825e+02	9.55940389e+06	1.67446245e+00	1.09844961e-05	1.13496525e-02	7.67449727e-10	9.23793584e-02
4.28995937e-01	1.19520001e-01	8.49609403e-03	2.39134161e+00	4.29055651e+05	3.00000000e+02	3.50203315e+02	9.59810789e+06	1.63855528e+00	1.09852571e-05	1.13600203e-02	9.06549979e-10	9.22715834e-02
4.27931517e-01	1.19520001e-01	8.49609403e-03	2.38503296e+00	4.25707947e+05	3.00000000e+02	3.22948279e+02	9.48797574e+06	1.57126543e+00	1.09863773e-05	1.13101327e-02	1.07099768e-09	9.17448032e-02
4.26869452e-01	1.19520001e-01	8.49609403e-03	2.39964314e+00	4.22811802e+05	3.00000000e+02	2.85724195e+02	9.22288719e+06	1.48223519e+00	1.09880368e-05	1.11909302e-02	1.22733295e-09	9.07429571e-02
4.25809741e-01	1.19520001e-01	8.49609403e-03	2.42862922e+00	4.19334648e+05	3.00000000e+02	2.43127756e+02	8.82186153e+06	1.37504758e+00	1.09918435e-05	1.10210442e-02	1.37470601e-09	8.94119628e-02
4.24752400e-01	1.19520001e-01	8.49609403e-03	2.48250888e+00	4.17896027e+05	3.00000000e+02	2.07608257e+02	8.33163978e+06	1.28443492e+00	1.09937535e-05	1.08638739e-02	1.40853723e-09	8.82215274e-02
4.23697397e-01	1.19520001e-01	8.49609403e-03	2.52335710e+00	4.13779209e+05	3.00000000e+02	1.86834236e+02	7.83936328e+06	1.22856657e+00	1.09928241e-05	1.08005353e-02	1.37740700e-09	8.77252484e-02
4.45249379e-01	1.19520001e-01	7.91015662e-03	2.25618198e+00	4.34891390e+05	3.00000000e+02	7.24143430e+02	1.13223728e+07	2.29039838e+00	1.09768750e-05	1.65445016e-02	2.05952786e-10	1.30330245e-01
4.44148868e-01	1.19520001e-01	7.91015662e-03	2.24975044e+00	4.37268827e+05	3.00000000e+02	7.00679821e+02	1.15152389e+07	2.24980956e+00	1.09766952e-05	1.65981180e-02	2.30287031e-10	1.30634718e-01
4.43050816e-01	1.19520001e-01	7.91015662e-03	2.24809710e+00	4.39904729e+05	3.00000000e+02	6.72300567e+02	1.16731711e+07	2.20297543e+00	1.09766547e-05	1.66344683e-02	2.54790647e-10	1.30830466e-01
4.41955209e-01	1.19520001e-01	7.91015663e-03	2.24998122e+00	4.42800692e+05	3.00000000e+02	6.42132575e+02	1.18067950e+07	2.15386218e+00	1.09767626e-05	1.66318149e-02	2.81569822e-10	1.30761201e-01
4.40862014e-01	1.19520001e-01	7.91015662e-03	2.25109978e+00	4.45261569e+05	3.00000000e+02	6.14153706e+02	1.19227402e+07	2.10685549e+00	1.09771992e-05	1.65740507e-02	3.12798102e-10	1.30291560e-01
4.39771249e-01	1.19520001e-01	7.91015662e-03	2.24763550e+00	4.47007287e+05	3.00000000e+02	5.92140433e+02	1.20474584e+07	2.06693417e+00	1.09783998e-05	1.64733115e-02	3.54477002e-10	1.29463740e-01
4.38682898e-01	1.19520001e-01	7.91015662e-03	2.23301460e+00	4.47796830e+05	3.00000000e+02	5.75214411e+02	1.22432969e+07	2.03021087e+00	1.09801910e-05	1.63633843e-02	4.08227807e-10	1.28605315e-01
4.37596962e-01	1.19520001e-01	7.91015663e-03	2.21546986e+00	4.47498522e+05	3.00000000e+02	5.61763953e+02	1.24089107e+07	1.99859780e+00	1.09793047e-05	1.62763211e-02	4.74572691e-10	1.27894585e-01
4.36513453e-01	1.19520001e-01	7.91015662e-03	2.19806342e+00	4.46216009e+05	3.00000000e+02	5.46972163e+02	1.25222524e+07	1.96438940e+00	1.09790693e-05	1.62153207e-02	5.50439636e-10	1.27289775e-01
4.35432359e-01	1.19520001e-01	7.91015662e-03	2.18374271e+00	4.44770013e+05	3.00000000e+02	5.30256783e+02	1.25948344e+07	1.92780982e+00	1.09791836e-05	1.61654406e-02	6.32116601e-10	1.26746592e-01
4.34353665e-01	1.19520001e-01	7.91015662e-03	2.17077296e+00	4.43329921e+05	3.00000000e+02	5.15466372e+02	1.26533394e+07	1.89500989e+00	1.09795939e-05	1.61188001e-02	7.21140444e-10	1.26188570e-01
4.33277353e-01	1.19520001e-01	7.91015662e-03	2.15392421e+00	4.41838566e+05	3.00000000e+02	5.09215119e+02	1.27536641e+07	1.87608966e+00	1.09800078e-05	1.60934860e-02	8.23994800e-10	1.25745134e-01
4.32203412e-01	1.19520001e-01	7.91015662e-03	2.12714823e+00	4.39665062e+05	3.00000000e+02	5.12134228e+02	1.29346091e+07	1.86959582e+00	1.09807862e-05	1.61247201e-02	9.50192109e-10	1.25631219e-01
4.31131870e-01	1.19520001e-01	7.91015663e-03	2.09107343e+00	4.36689298e+05	3.00000000e+02	5.17458968e+02	1.31906566e+07	1.86304903e+00	1.09821836e-05	1.62339463e-02	1.10730599e-09	1.26021218e-01
4.30062726e-01	1.19520001e-01	7.91015662e-03	2.05307966e+00	4.32967396e+05	3.00000000e+02	5.15280319e+02	1.34395688e+07	1.84196919e+00	1.09832963e-05	1.64233756e-02	1.30069622e-09	1.26951024e-01
4.28995937e-01	1.19520001e-01	7.91015662e-03	2.01976835e+00	4.29630453e+05	3.00000000e+02	4.96585352e+02	1.36656674e+07	1.79360766e+00	1.09827391e-05	1.66882439e-02	1.52456574e-09	1.28415451e-01
4.27931518e-01	1.19520001e-01	7.91015663e-03	1.99300357e+00	4.26445803e+05	3.00000000e+02	4.59135583e+02	1.38285567e+07	1.71320736e+00	1.09825950e-05	1.70138904e-02	1.76840185e-09	1.30296666e-01
4.26869452e-01	1.19520001e-01	7.91015663e-03	1.97457407e+00	4.23441270e+05	3.00000000e+02	4.04598668e+02	1.39030213e+07	1.60063492e+00	1.09836589e-05	1.73786483e-02	2.02575388e-09	1.32441013e-01
4.25809741e-01	1.19520001e-01	7.91015662e-03	1.96903050e+00	4.20870730e+05	3.00000000e+02	3.41607056e+02	1.38315951e+07	1.46884145e+00	1.09825984e-05	1.77594134e-02	2.25482731e-09	1.34717080e-01
4.24752399e-01	1.19520001e-01	7.91015663e-03	1.97037080e+00	4.17875733e+05	3.00000000e+02	2.79800530e+02	1.36483401e+07	1.32965830e+00	1.09836980e-05	1.81382007e-02	2.43648178e-09	1.36975746e-01
4.45249379e-01	1.19520001e-01	7.32421899e-03	2.14425158e+00	4.35319718e+05	3.00000000e+02	8.08538064e+02	1.26540065e+07	2.35949305e+00	1.09763965e-05	1.94288465e-02	3.20689300e-10	1.48478344e-01
4.44148869e-01	1.19520001e-01	7.32421898e-03	2.13468049e+00	4.37645319e+05	3.00000000e+02	7.90801954e+02	1.29018488e+07	2.32825699e+00	1.09763962e-05	1.94881604e-02	3.64504162e-10	1.48766625e-01
4.43050816e-01	1.19520001e-01	7.32421899e-03	2.12848879e+00	4.40190597e+05	3.00000000e+02	7.68626030e+02	1.31245720e+07	2.29203689e+00	1.09764527e-05	1.95456703e-02	4.14283580e-10	1.49044699e-01
4.41955209e-01	1.19520001e-01	7.32421899e-03	2.12455243e+00	4.42926371e+05	3.00000000e+02	7.44479880e+02	1.33316033e+07	2.25363487e+00	1.09765798e-05	1.95852997e-02	4.71336915e-10	1.49193524e-01
4.40862015e-01	1.19520001e-01	7.32421899e-03	2.11902116e+00	4.45274134e+05	3.00000000e+02	7.21850307e+02	1.35345198e+07	2.21619087e+00	1.09767669e-05	1.95984497e-02	5.39962948e-10	1.49138991e-01
4.39771250e-01	1.19520001e-01	7.32421899e-03	2.10854232e+00	4.46985921e+05	3.00000000e+02	7.03969919e+02	1.37613242e+07	2.18309966e+00	1.09770347e-05	1.96025242e-02	6.26619468e-10	1.48971735e-01
4.38682899e-01	1.19520001e-01	7.32421899e-03	2.09156136e+00	4.47737927e+05	3.00000000e+02	6.91120836e+02	1.40162133e+07	2.15428434e+00	1.09774043e-05	1.96320454e-02	7.35146423e-10	1.48896703e-01
4.37596961e-01	1.19520001e-01	7.32421899e-03	2.06909572e+00	4.47302435e+05	3.00000000e+02	6.80497861e+02	1.42777227e+07	2.12606311e+00	1.09778655e-05	1.97097152e-02	8.63930082e-10	1.49087962e-01
4.36513454e-01	1.19520001e-01	7.32421899e-03	2.04476161e+00	4.45999144e+05	3.00000000e+02	6.68638688e+02	1.45208192e+07	2.09490370e+00	1.09785103e-05	1.98309093e-02	1.00744134e-09	1.49545290e-01
4.35432359e-01	1.19520001e-01	7.32421899e-03	2.02222631e+00	4.44542687e+05	3.00000000e+02	6.54587867e+02	1.47389359e+07	2.06114000e+00	1.09794794e-05	1.99748373e-02	1.16404421e-09	1.50122026e-01
4.34353665e-01	1.19520001e-01	7.32421899e-03	2.00209971e+00	4.43098783e+05	3.00000000e+02	6.42606771e+02	1.49258948e+07	2.03197514e+00	1.09796247e-05	2.01228918e-02	1.33808360e-09	1.50680429e-01
4.33277354e-01	1.19520001e-01	7.32421898e-03	1.97983159e+00	4.41558350e+05	3.00000000e+02	6.37327270e+02	1.51382983e+07	2.01234080e+00	1.09795421e-05	2.02725781e-02	1.54143024e-09	1.51185372e-01
4.32203412e-01	1.19520001e-01	7.32421899e-03	1.95101403e+00	4.39525033e+05	3.00000000e+02	6.39266432e+02	1.54204412e+07	2.00065322e+00	1.09796808e-05	2.04430163e-02	1.78695958e-09	1.51755874e-01
4.31131869e-01	1.19520001e-01	7.32421898e-03	1.91535503e+00	4.36580127e+05	3.00000000e+02	6.42401471e+02	1.57600739e+07	1.98704554e+00	1.09802056e-05	2.06635048e-02	2.09035939e-09	1.52593448e-01
4.30062726e-01	1.19520001e-01	7.32421899e-03	1.87774918e+00	4.32974423e+05	3.00000000e+02	6.37479473e+02	1.61065358e+07	1.95974657e+00	1.09810119e-05	2.09598904e-02	2.46860716e-09	1.53860537e-01
4.28995937e-01	1.19520001e-01	7.32421899e-03	1.84288897e+00	4.29726306e+05	3.00000000e+02	6.17618027e+02	1.64501642e+07	1.91107391e+00	1.09805089e-05	2.13546014e-02	2.90952401e-09	1.55725882e-01
4.27931518e-01	1.19520001e-01	7.32421898e-03	1.80979646e+00	4.26743065e+05	3.00000000e+02	5.79688700e+02	1.68153822e+07	1.83469751e+00	1.09809066e-05	2.18616556e-02	3.42696170e-09	1.58223334e-01
4.26869452e-01	1.19520001e-01	7.32421898e-03	1.78386783e+00	4.24310070e+05	3.00000000e+02	5.26820046e+02	1.71100500e+07	1.73663839e+00	1.09797758e-05	2.24724930e-02	3.98741989e-09	1.61313706e-01
4.25809741e-01	1.19520001e-01	7.32421899e-03	1.76419353e+00	4.21879888e+05	3.00000000e+02	4.62739931e+02	1.73151610e+07	1.61873334e+00	1.09788455e-05	2.31640312e-02	4.55397330e-09	1.64814854e-01
4.24752400e-01	1.19520001e-01	7.32421899e-03	1.74934973e+00	4.18888273e+05	3.00000000e+02	3.98199023e+02	1.74025330e+07	1.49541209e+00	1.09778657e-05	2.39042072e-02	5.10430363e-09	1.68511877e-01
4.45249379e-01	1.19520001e-01	6.73828158e-03	2.06076713e+00	4.35795397e+05	3.00000000e+02	8.23150987e+02	1.38521265e+07	2.33451487e+00	1.09735703e-05	2.31680552e-02	5.06200645e-10	1.70139284e-01
4.44148869e-01	1.19520001e-01	6.73828157e-03	2.05049578e+00	4.38047697e+05	3.00000000e+02	8.08412341e+02	1.41296696e+07	2.30773981e+00	1.09736082e-05	2.32275390e-02	5.78889338e-10	1.70325476e-01
4.43050816e-01	1.19520001e-01	6.73828158e-03	2.04296593e+00	4.40541595e+05	3.00000000e+02	7.89587598e+02	1.43892040e+07	2.27650845e+00	1.09736686e-05	2.32989099e-02	6.62555015e-10	1.70576253e-01
4.41955209e-01	1.19520001e-01	6.73828158e-03	2.03660334e+00	4.43076380e+05	3.00000000e+02	7.68950573e+02	1.46371797e+07	2.24303978e+00	1.09737698e-05	2.33710076e-02	7.61060526e-10	1.70801700e-01
4.40862015e-01	1.19520001e-01	6.73828158e-03	2.02837435e+00	4.45255932e+05	3.00000000e+02	7.49598924e+02	1.48896161e+07	2.21011953e+00	1.09739545e-05	2.34425156e-02	8.80099074e-10	1.70960281e-01
4.39771250e-01	1.19520001e-01	6.73828158e-03	2.01557451e+00	4.46789903e+05	3.00000000e+02	7.34267716e+02	1.51678972e+07	2.18043020e+00	1.09742498e-05	2.35327923e-02	1.02911295e-09	1.71134386e-01
4.38682899e-01	1.19520001e-01	6.73828158e-03	1.99684133e+00	4.47360237e+05	3.00000000e+02	7.23495211e+02	1.54752142e+07	2.15423448e+00	1.09745575e-05	2.36703517e-02	1.21711011e-09	1.71491057e-01
4.37596961e-01	1.19520001e-01	6.73828158e-03	1.97363015e+00	4.46871786e+05	3.00000000e+02	7.15117905e+02	1.57852576e+07	2.12928678e+00	1.09743281e-05	2.38714581e-02	1.44302868e-09	1.72153750e-01
4.36513454e-01	1.19520001e-01	6.73828158e-03	1.94820148e+00	4.45493703e+05	3.00000000e+02	7.05535021e+02	1.60831251e+07	2.10133086e+00	1.09741823e-05	2.41273500e-02	1.70330712e-09	1.73085692e-01
4.35432359e-01	1.19520001e-01	6.73828157e-03	1.92479359e+00	4.44093398e+05	3.00000000e+02	6.95456613e+02	1.63568257e+07	2.07373619e+00	1.09739753e-05	2.44147846e-02	1.99370105e-09	1.74152691e-01
4.34353665e-01	1.19520001e-01	6.73828158e-03	1.90121498e+00	4.42684509e+05	3.00000000e+02	6.85835950e+02	1.66411884e+07	2.04671872e+00	1.09738232e-05	2.47107050e-02	2.32244787e-09	1.75204901e-01
4.33277354e-01	1.19520001e-01	6.73828158e-03	1.87584721e+00	4.41112319e+05	3.00000000e+02	6.81606491e+02	1.69487026e+07	2.02679718e+00	1.09735130e-05	2.50079315e-02	2.71523561e-09	1.76178364e-01
4.32203412e-01	1.19520001e-01	6.73828158e-03	1.84551462e+00	4.39011255e+05	3.00000000e+02	6.83088525e+02	1.73146110e+07	2.01253896e+00	1.09734535e-05	2.53206566e-02	3.19884871e-09	1.77140042e-01
4.31131869e-01	1.19520001e-01	6.73828157e-03	1.81117968e+00	4.36024473e+05	3.00000000e+02	6.85044624e+02	1.76985283e+07	1.99665136e+00	1.09730749e-05	2.56791657e-02	3.80629326e-09	1.78276657e-01
4.30062726e-01	1.19520001e-01	6.73828158e-03	1.77436872e+00	4.32820193e+05	3.00000000e+02	6.77837517e+02	1.81371199e+07	1.96591721e+00	1.09726089e-05	2.61178217e-02	4.53629364e-09	1.79790937e-01
4.28995937e-01	1.19520001e-01	6.73828158e-03	1.74166545e+00	4.29584306e+05	3.00000000e+02	6.57235923e+02	1.85179001e+07	1.91808262e+00	1.09715021e-05	2.66664620e-02	5.43663461e-09	1.81821931e-01
4.27931518e-01	1.19520001e-01	6.73828157e-03	1.70981627e+00	4.26949845e+05	3.00000000e+02	6.19200968e+02	1.89595973e+07	1.84489382e+00	1.09700737e-05	2.73442890e-02	6.48253329e-09	1.84445254e-01
4.26869452e-01	1.19520001e-01	6.73828157e-03	1.68213317e+00	4.24690300e+05	3.00000000e+02	5.67228496e+02	1.93715570e+07	1.75176882e+00	1.09678828e-05	2.81505649e-02	7.66856419e-09	1.87600963e-01
4.25809741e-01	1.19520001e-01	6.73828158e-03	1.65900015e+00	4.22171552e+05	3.00000000e+02	5.06122299e+02	1.96822742e+07	1.64377606e+00	1.09647487e-05	2.90684690e-02	8.95032197e-09	1.91162282e-01
4.24752400e-01	1.19520001e-01	6.73828158e-03	1.63844424e+00	4.19177855e+05	3.00000000e+02	4.43330675e+02	1.99100351e+07	1.52938805e+00	1.09610565e-05	3.00663612e-02	1.02932361e-08	1.94904569e-01
4.45249379e-01	1.19520001e-01	6.15234417e-03	2.01136432e+00	4.36152607e+05	3.00000000e+02	7.59264283e+02	1.47168941e+07	2.21724092e+00	1.09627461e-05	2.81597046e-02	7.97296853e-10	1.94968174e-01
4.44148869e-01	1.19520001e-01	6.15234417e-03	2.00378118e+00	4.38385781e+05	3.00000000e+02	7.43410739e+02	1.49764731e+07	2.18985864e+00	1.09626075e-05	2.82230522e-02	9.04647421e-10	1.95073237e-01
4.43050816e-01	1.19520001e-01	6.15234417e-03	1.99850259e+00	4.40722755e+05	3.00000000e+02	7.23600499e+02	1.52109722e+07	2.15769580e+00	1.09623069e-05	2.83095769e-02	1.02953904e-09	1.95306253e-01
4.41955209e-01	1.19520001e-01	6.15234417e-03	1.99497805e+00	4.43035834e+05	3.00000000e+02	7.02055808e+02	1.54172371e+07	2.12353631e+00	1.09618933e-05	2.84060432e-02	1.17703916e-09	1.95559931e-01
4.40862015e-01	1.19520001e-01	6.15234417e-03	1.98924513e+00	4.44964904e+05	3.00000000e+02	6.81415549e+02	1.56313992e+07	2.08914938e+00	1.09615271e-05	2.85109236e-02	1.35752434e-09	1.95777771e-01
4.39771249e-01	1.19520001e-01	6.15234417e-03	1.97898038e+00	4.46241641e+05	3.00000000e+02	6.64423518e+02	1.58715278e+07	2.05767927e+00	1.09611455e-05	2.86447381e-02	1.58401747e-09	1.96014921e-01
4.38682899e-01	1.19520001e-01	6.15234417e-03	1.96262565e+00	4.46676916e+05	3.00000000e+02	6.51692134e+02	1.61534799e+07	2.02952024e+00	1.09606668e-05	2.88423507e-02	1.86897886e-09	1.96426166e-01
4.37596961e-01	1.19520001e-01	6.15234417e-03	1.94081804e+00	4.46105444e+05	3.00000000e+02	6.41301149e+02	1.64633671e+07	2.00216099e+00	1.09601074e-05	2.91261724e-02	2.21339098e-09	1.97136608e-01
4.36513453e-01	1.19520001e-01	6.15234417e-03	1.91914561e+00	4.44833278e+05	3.00000000e+02	6.31998277e+02	1.67224309e+07	1.97669848e+00	1.09587714e-05	2.94881646e-02	2.61691254e-09	1.98144987e-01
4.35432360e-01	1.19520001e-01	6.15234417e-03	1.89662848e+00	4.43455097e+05	3.00000000e+02	6.21584088e+02	1.69991982e+07	1.94906241e+00	1.09573546e-05	2.99005417e-02	3.06909183e-09	1.99316646e-01
4.34353665e-01	1.19520001e-01	6.15234417e-03	1.87298140e+00	4.41904656e+05	3.00000000e+02	6.13143842e+02	1.72890533e+07	1.92394397e+00	1.09558451e-05	3.03331533e-02	3.59836716e-09	2.00476587e-01
4.33277354e-01	1.19520001e-01	6.15234417e-03	1.84699688e+00	4.40202369e+05	3.00000000e+02	6.10283099e+02	1.76146602e+07	1.90636109e+00	1.09542834e-05	3.07712194e-02	4.24624794e-09	2.01522858e-01
4.32203412e-01	1.19520001e-01	6.15234417e-03	1.81561046e+00	4.38009039e+05	3.00000000e+02	6.12480624e+02	1.80096798e+07	1.89376420e+00	1.09527203e-05	3.12232806e-02	5.05659018e-09	2.02491434e-01
4.31131869e-01	1.19520001e-01	6.15234417e-03	1.78084930e+00	4.35045775e+05	3.00000000e+02	6.14706115e+02	1.84265536e+07	1.87924400e+00	1.09510198e-05	3.17208798e-02	6.08262603e-09	2.03543732e-01
4.30062726e-01	1.19520001e-01	6.15234417e-03	1.74592593e+00	4.32044113e+05	3.00000000e+02	6.09563915e+02	1.88563244e+07	1.85334884e+00	1.09485283e-05	3.23070229e-02	7.31813752e-09	2.04890257e-01
4.28995937e-01	1.19520001e-01	6.15234417e-03	1.71288681e+00	4.29103582e+05	3.00000000e+02	5.90618687e+02	1.92769575e+07	1.80751149e+00	1.09452892e-05	3.30184163e-02	8.79597874e-09	2.06653660e-01
4.27931518e-01	1.19520001e-01	6.15234417e-03	1.68258087e+00	4.26465984e+05	3.00000000e+02	5.56280061e+02	1.96858585e+07	1.73928345e+00	1.09409426e-05	3.38862040e-02	1.04952537e-08	2.08905821e-01
4.26869452e-01	1.19520001e-01	6.15234417e-03	1.65607002e+00	4.23917398e+05	3.00000000e+02	5.07856544e+02	2.00336850e+07	1.64957367e+00	1.09352456e-05	3.49120872e-02	1.23849677e-08	2.11586352e-01
4.25809741e-01	1.19520001e-01	6.15234417e-03	1.63367029e+00	4.21199874e+05	3.00000000e+02	4.49751133e+02	2.02821312e+07	1.54280003e+00	1.09282113e-05	3.60779604e-02	1.43749811e-08	2.14551943e-01
4.24752399e-01	1.19520001e-01	6.15234417e-03	1.61441829e+00	4.17913468e+05	3.00000000e+02	3.89700109e+02	2.04046822e+07	1.42870404e+00	1.09199691e-05	3.73534171e-02	1.64837652e-08	2.17597449e-01
4.45249379e-01	1.19520001e-01	5.56640653e-03	1.96391783e+00	4.36486087e+05	3.00000000e+02	6.52494723e+02	1.54637753e+07	2.03745294e+00	1.09283087e-05	3.49054985e-02	1.38731735e-09	2.19342223e-01
4.44148868e-01	1.19520001e-01	5.56640653e-03	1.95981576e+00	4.38655747e+05	3.00000000e+02	6.33386011e+02	1.56825345e+07	2.00540202e+00	1.09277511e-05	3.50111901e-02	1.54985154e-09	2.19482479e-01
4.43050817e-01	1.19520001e-01	5.56640653e-03	1.95809479e+00	4.40898768e+05	3.00000000e+02	6.10353144e+02	1.58704650e+07	1.96784730e+00	1.09271382e-05	3.51273666e-02	1.72822730e-09	2.19695584e-01
4.41955208e-01	1.19520001e-01	5.56640653e-03	1.95758274e+00	4.43025236e+05	3.00000000e+02	5.85619503e+02	1.60316147e+07	1.92740299e+00	1.09266161e-05	3.52321358e-02	1.92581377e-09	2.19891648e-01
4.40862015e-01	1.19520001e-01	5.56640653e-03	1.95558575e+00	4.44689243e+05	3.00000000e+02	5.62001296e+02	1.61831590e+07	1.88724688e+00	1.09261903e-05	3.53225803e-02	2.16266869e-09	2.20019554e-01
4.39771249e-01	1.19520001e-01	5.56640653e-03	1.94982393e+00	4.45706747e+05	3.00000000e+02	5.42218137e+02	1.63474668e+07	1.85109391e+00	1.09256341e-05	3.54353822e-02	2.46636014e-09	2.20124445e-01
4.38682898e-01	1.19520001e-01	5.56640653e-03	1.93953414e+00	4.45930617e+05	3.00000000e+02	5.27076064e+02	1.65208804e+07	1.82046029e+00	1.09243231e-05	3.56337544e-02	2.85908292e-09	2.20354869e-01
4.37596961e-01	1.19520001e-01	5.56640653e-03	1.92374800e+00	4.45337632e+05	3.00000000e+02	5.14428190e+02	1.67250522e+07	1.79150144e+00	1.09221891e-05	3.59568892e-02	3.32968839e-09	2.20841318e-01
4.36513453e-01	1.19520001e-01	5.56640653e-03	1.90449185e+00	4.44157681e+05	3.00000000e+02	5.02568873e+02	1.69512945e+07	1.76226862e+00	1.09195723e-05	3.63941120e-02	3.86545326e-09	2.21566388e-01
4.35432360e-01	1.19520001e-01	5.56640653e-03	1.88491970e+00	4.42733144e+05	3.00000000e+02	4.91772623e+02	1.71614082e+07	1.73477892e+00	1.09162846e-05	3.69110623e-02	4.47046975e-09	2.22423648e-01
4.34353665e-01	1.19520001e-01	5.56640653e-03	1.86419876e+00	4.41118453e+05	3.00000000e+02	4.84232757e+02	1.73765280e+07	1.71252959e+00	1.09125310e-05	3.74674644e-02	5.19981312e-09	2.23264089e-01
4.33277354e-01	1.19520001e-01	5.56640653e-03	1.83802413e+00	4.39252094e+05	3.00000000e+02	4.81761820e+02	1.76768778e+07	1.69667756e+00	1.09089478e-05	3.80356726e-02	6.11719255e-09	2.23977106e-01
4.32203412e-01	1.19520001e-01	5.56640653e-03	1.80729232e+00	4.36894912e+05	3.00000000e+02	4.84791658e+02	1.80285069e+07	1.68827719e+00	1.09053197e-05	3.86171389e-02	7.34179230e-09	2.24563907e-01
4.31131869e-01	1.19520001e-01	5.56640653e-03	1.77335110e+00	4.34095651e+05	3.00000000e+02	4.87782717e+02	1.84170915e+07	1.67811134e+00	1.09013474e-05	3.92451542e-02	8.91946342e-09	2.25149107e-01
4.30062726e-01	1.19520001e-01	5.56640653e-03	1.73956116e+00	4.31188778e+05	3.00000000e+02	4.83310574e+02	1.88047180e+07	1.65513128e+00	1.08965982e-05	3.99763568e-02	1.08498139e-08	2.25896347e-01
4.28995937e-01	1.19520001e-01	5.56640653e-03	1.70802712e+00	4.28454898e+05	3.00000000e+02	4.65605202e+02	1.91648276e+07	1.61065645e+00	1.08903982e-05	4.08550172e-02	1.31025351e-08	2.26915913e-01
4.27931518e-01	1.19520001e-01	5.56640653e-03	1.68088780e+00	4.25678417e+05	3.00000000e+02	4.34105290e+02	1.94274180e+07	1.54392052e+00	1.08825920e-05	4.19237019e-02	1.56709864e-08	2.28219170e-01
4.26869452e-01	1.19520001e-01	5.56640653e-03	1.65666241e+00	4.23026147e+05	3.00000000e+02	3.89531438e+02	1.96263117e+07	1.45325593e+00	1.08726785e-05	4.31910341e-02	1.84518587e-08	2.29781929e-01
4.25809741e-01	1.19520001e-01	5.56640653e-03	1.63815917e+00	4.20104667e+05	3.00000000e+02	3.36180385e+02	1.96483343e+07	1.34401918e+00	1.08604833e-05	4.46384532e-02	2.12583912e-08	2.31469472e-01
4.45249379e-01	1.19520001e-01	4.98046889e-03	1.91012620e+00	4.36718966e+05	3.00000000e+02	5.19252801e+02	1.57595579e+07	1.80468361e+00	1.08544985e-05	4.43248633e-02	2.69207037e-09	2.35812857e-01