VARIABLES ="X" "Y" "Z" "rho" "press" "temp" "tau_wall" "qdot" "yplus" "muLam" "ZMean" "ZVar" "CMean" 
Zone T ="wall" I = 8632 , F = point
3.98084551e-01	1.29320011e-01	4.31332365e-04	1.16572621e+00	1.34578752e+05	3.00000000e+02	1.86271793e+03	3.74711894e+06	1.96556402e+00	1.11306424e-05	2.42476204e-40	2.33461361e-47	6.58655265e-10
3.98763859e-01	1.29320011e-01	3.76781197e-04	1.18304576e+00	1.37080480e+05	3.00000000e+02	1.86711243e+03	3.80231011e+06	1.98244603e+00	1.11306424e-05	5.24348437e-40	5.51338036e-47	6.66932152e-10
3.98990275e-01	1.29320011e-01	8.87797211e-03	1.19105101e+00	1.38253511e+05	3.00000000e+02	1.86978021e+03	3.82910519e+06	1.99056254e+00	1.11306424e-05	-3.65571975e-33	-4.27703812e-43	6.69802616e-10
3.98157331e-01	1.29320011e-01	8.89711205e-03	1.16734045e+00	1.34810567e+05	3.00000000e+02	1.86301799e+03	3.75218088e+06	1.96708287e+00	1.11306424e-05	-2.22239640e-34	8.88345108e-42	6.59534514e-10
3.98157350e-01	1.29320011e-01	7.93788339e-03	1.16734736e+00	1.34811354e+05	3.00000000e+02	1.86301691e+03	3.75217970e+06	1.96708812e+00	1.11306424e-05	-2.44453986e-34	-1.85931977e-43	6.59534713e-10
3.98156469e-01	1.29320011e-01	6.97306857e-03	1.16733462e+00	1.34809642e+05	3.00000000e+02	1.86304579e+03	3.75215290e+06	1.96709263e+00	1.11306424e-05	-7.51429834e-35	-1.38758986e-42	6.59524289e-10
3.98147231e-01	1.29320011e-01	6.00566947e-03	1.16714345e+00	1.34782369e+05	3.00000000e+02	1.86304028e+03	3.75157404e+06	1.96692866e+00	1.11306424e-05	-2.53507276e-36	6.83693315e-43	6.59414535e-10
3.98128521e-01	1.29320011e-01	5.04379655e-03	1.16673195e+00	1.34723443e+05	3.00000000e+02	1.86297977e+03	3.75030334e+06	1.96654994e+00	1.11306424e-05	1.22330753e-36	2.52234665e-43	6.59191563e-10
3.98108284e-01	1.29320011e-01	4.09326380e-03	1.16627349e+00	1.34657846e+05	3.00000000e+02	1.86291359e+03	3.74889256e+06	1.96612861e+00	1.11306424e-05	3.51228727e-37	5.06556835e-44	6.58948792e-10
3.98094881e-01	1.29320011e-01	3.15140987e-03	1.16597272e+00	1.34614702e+05	3.00000000e+02	1.86286515e+03	3.74795401e+06	1.96584952e+00	1.11306424e-05	6.51113326e-38	8.02674762e-45	6.58787974e-10
3.98082872e-01	1.29320011e-01	2.22717910e-03	1.16570564e+00	1.34576250e+05	3.00000000e+02	1.86279424e+03	3.74710468e+06	1.96558694e+00	1.11306424e-05	1.01384927e-38	1.12799675e-45	6.58645349e-10
3.98072531e-01	1.29320011e-01	1.32236159e-03	1.16545304e+00	1.34539897e+05	3.00000000e+02	1.86270192e+03	3.74630266e+06	1.96532526e+00	1.11306424e-05	1.46512874e-39	1.50696557e-46	6.58529220e-10
3.98740624e-01	1.29320011e-01	1.15437550e-03	1.18215307e+00	1.36954213e+05	3.00000000e+02	1.86716651e+03	3.79979925e+06	1.98172667e+00	1.11306424e-05	2.67155010e-39	2.99825715e-46	6.66708300e-10
3.98992297e-01	1.29320011e-01	7.87554372e-03	1.19113603e+00	1.38265851e+05	3.00000000e+02	1.86978744e+03	3.82937501e+06	1.99063743e+00	1.11306424e-05	-3.96682034e-33	-1.24420739e-40	6.69828133e-10
3.98989360e-01	1.29320011e-01	6.84723543e-03	1.19100861e+00	1.38246709e+05	3.00000000e+02	1.86970558e+03	3.82889994e+06	1.99048738e+00	1.11306424e-05	-1.21543831e-33	-7.15582123e-41	6.69791607e-10
3.98956795e-01	1.29320011e-01	5.80774781e-03	1.18980755e+00	1.38070815e+05	3.00000000e+02	1.86942654e+03	3.82491320e+06	1.98933502e+00	1.11306424e-05	-6.76273967e-35	-3.28624760e-42	6.69383942e-10
3.98894045e-01	1.29320011e-01	4.79219082e-03	1.18756278e+00	1.37741436e+05	3.00000000e+02	1.86868662e+03	3.81737120e+06	1.98706417e+00	1.11306424e-05	2.63603672e-37	3.47364645e-43	6.68595465e-10
3.98834125e-01	1.29320011e-01	3.82109993e-03	1.18546937e+00	1.37434746e+05	3.00000000e+02	1.86799164e+03	3.81036472e+06	1.98494281e+00	1.11306424e-05	5.45088470e-37	9.05458767e-44	6.67844429e-10
3.98803442e-01	1.29320011e-01	2.87505281e-03	1.18440607e+00	1.37279536e+05	3.00000000e+02	1.86761601e+03	3.80685860e+06	1.98385293e+00	1.11306424e-05	1.05128537e-37	1.42848228e-44	6.67459888e-10
3.98772866e-01	1.29320011e-01	1.98281551e-03	1.18334616e+00	1.37125083e+05	3.00000000e+02	1.86722546e+03	3.80338632e+06	1.98275770e+00	1.11306424e-05	1.70455147e-38	2.07722550e-45	6.67086159e-10
3.99830293e-01	1.29320011e-01	6.70386293e-03	1.22656116e+00	1.43505388e+05	3.00000000e+02	1.88396168e+03	3.94891534e+06	2.02766412e+00	1.11306424e-05	-1.91971008e-32	-1.24467690e-39	6.80668095e-10
3.99760412e-01	1.29320011e-01	5.56079445e-03	1.22296712e+00	1.42968705e+05	3.00000000e+02	1.88231291e+03	3.93655796e+06	2.02380495e+00	1.11306424e-05	-8.65911447e-34	-6.77254138e-41	6.79736358e-10
3.99626007e-01	1.29320011e-01	4.48645354e-03	1.21630699e+00	1.41975694e+05	3.00000000e+02	1.87968137e+03	3.91362841e+06	2.01687548e+00	1.11306424e-05	-1.66997291e-35	-1.01570885e-42	6.77972639e-10
3.99366003e-01	1.29320011e-01	3.20609185e-04	1.20454924e+00	1.40227203e+05	3.00000000e+02	1.87420187e+03	3.87302704e+06	2.00417589e+00	1.11306424e-05	1.01544660e-39	1.18240076e-46	6.74499927e-10
3.99813265e-01	1.29320011e-01	8.86223657e-03	1.22562839e+00	1.43365535e+05	3.00000000e+02	1.88361542e+03	3.94565497e+06	2.02670664e+00	1.11306424e-05	-4.43533539e-32	-5.66665663e-40	6.80447583e-10
3.99358844e-01	1.29320011e-01	9.82319825e-04	1.20360497e+00	1.40097015e+05	3.00000000e+02	1.87458430e+03	3.87083795e+06	2.00359458e+00	1.11306424e-05	4.46078730e-39	5.56065482e-46	6.74517810e-10
3.99825602e-01	1.29320011e-01	7.81824577e-03	1.22631237e+00	1.43468951e+05	3.00000000e+02	1.88395994e+03	3.94813808e+06	2.02745747e+00	1.11306424e-05	-5.57250542e-32	-2.17563423e-39	6.80611224e-10
3.99448470e-01	1.29320011e-01	1.71356297e-03	1.20796000e+00	1.40747063e+05	3.00000000e+02	1.87694751e+03	3.88624755e+06	2.00848087e+00	1.11306424e-05	2.74929743e-38	3.77041845e-45	6.75675718e-10
4.00701928e-01	1.29320011e-01	6.54153445e-03	1.27482387e+00	1.50790858e+05	3.00000000e+02	1.90960439e+03	4.11618086e+06	2.08119212e+00	1.11306424e-05	-2.72480791e-31	-1.57444726e-38	6.92721559e-10
4.00625823e-01	1.29320011e-01	8.85650859e-03	1.27007971e+00	1.50054231e+05	3.00000000e+02	1.90588314e+03	4.09820030e+06	2.07529094e+00	1.11306424e-05	-3.93198956e-31	-6.16155483e-39	6.91629804e-10
4.00659207e-01	1.29320011e-01	7.78960319e-03	1.27223580e+00	1.50383903e+05	3.00000000e+02	1.90724773e+03	4.10586626e+06	2.07779513e+00	1.11306424e-05	-6.01390720e-31	-2.24219472e-38	6.92112771e-10
4.01426319e-01	1.29320011e-01	8.86874864e-03	1.31956900e+00	1.57640750e+05	3.00000000e+02	1.93637002e+03	4.26981574e+06	2.13218848e+00	1.11306424e-05	-2.69632171e-30	-4.12028774e-38	7.03422230e-10
4.01483184e-01	1.29320011e-01	7.83573494e-03	1.32327895e+00	1.58217882e+05	3.00000000e+02	1.93904927e+03	4.28299510e+06	2.13666034e+00	1.11306424e-05	-3.76292028e-30	-1.18465209e-37	7.04297592e-10
3.99522936e-01	1.29320011e-01	3.51580643e-03	1.21144102e+00	1.41252852e+05	3.00000000e+02	1.87758311e+03	3.89700369e+06	2.01171326e+00	1.11306424e-05	4.32218552e-37	1.15052706e-43	6.76613571e-10
3.99887749e-01	1.29320011e-01	2.64434756e-04	1.22834652e+00	1.43757301e+05	3.00000000e+02	1.88381752e+03	3.95347215e+06	2.02906163e+00	1.11306424e-05	1.76699360e-39	2.28329874e-46	6.81293160e-10
3.99891365e-01	1.29320011e-01	8.00501255e-04	1.22696622e+00	1.43565138e+05	3.00000000e+02	1.88421057e+03	3.95022565e+06	2.02813281e+00	1.11306424e-05	6.44255017e-39	8.88777714e-46	6.81469600e-10
4.00149515e-01	1.29320011e-01	3.21801778e-03	1.24159847e+00	1.45750652e+05	3.00000000e+02	1.89094741e+03	3.99982871e+06	2.04383422e+00	1.11306424e-05	-1.82771521e-36	-7.50942563e-44	6.84945465e-10
3.99502698e-01	1.29320011e-01	2.55761362e-03	1.21044052e+00	1.41109563e+05	3.00000000e+02	1.87749292e+03	3.89414205e+06	2.01083415e+00	1.11306424e-05	1.49646258e-37	2.33952643e-44	6.76351536e-10
4.00565142e-01	1.29320011e-01	5.23499568e-03	1.26644330e+00	1.49510837e+05	3.00000000e+02	1.90499578e+03	4.08650953e+06	2.07183532e+00	1.11306424e-05	-8.56965749e-33	-6.63828562e-40	6.90830304e-10
4.00295727e-01	1.29320011e-01	4.10975821e-03	1.25004540e+00	1.47014080e+05	3.00000000e+02	1.89480581e+03	4.02812279e+06	2.05286605e+00	1.11306424e-05	-1.18960986e-34	-1.08756686e-41	6.86976134e-10
4.00333835e-01	1.29320011e-01	2.19278185e-04	1.25237358e+00	1.47368240e+05	3.00000000e+02	1.89527727e+03	4.03647051e+06	2.05503254e+00	1.11306424e-05	2.84727912e-39	4.06702314e-46	6.87319680e-10
4.00713803e-01	1.29320011e-01	1.91643173e-04	1.27510383e+00	1.50821036e+05	3.00000000e+02	1.90749593e+03	4.11588100e+06	2.08027125e+00	1.11306424e-05	4.31585544e-39	6.74955216e-46	6.92641359e-10
4.01041425e-01	1.29320011e-01	1.74785554e-04	1.29598249e+00	1.54019634e+05	3.00000000e+02	1.91974455e+03	4.18910457e+06	2.10395611e+00	1.11306424e-05	6.18527249e-39	1.04688703e-45	6.97381748e-10
4.01326875e-01	1.29320011e-01	1.62980309e-04	1.31474269e+00	1.56914964e+05	3.00000000e+02	1.93170822e+03	4.25503689e+06	2.12572233e+00	1.11306424e-05	8.42226876e-39	1.52602314e-45	7.01630281e-10
4.01577240e-01	1.29320011e-01	1.53746752e-04	1.33127183e+00	1.59482456e+05	3.00000000e+02	1.94322030e+03	4.31321313e+06	2.14540735e+00	1.11306424e-05	1.09658652e-38	2.10744662e-45	7.05447876e-10
4.01798611e-01	1.29320011e-01	1.46214405e-04	1.34565651e+00	1.61726432e+05	3.00000000e+02	1.95376737e+03	4.36361667e+06	2.16281200e+00	1.11306424e-05	1.37603702e-38	2.78521777e-45	7.08892340e-10
4.01802280e-01	1.29320011e-01	4.30387848e-04	1.34454635e+00	1.61480232e+05	3.00000000e+02	1.94859163e+03	4.35268378e+06	2.15905786e+00	1.11306424e-05	2.89376313e-38	6.40474545e-45	7.09086593e-10
4.01825407e-01	1.29320011e-01	7.14308794e-04	1.34612639e+00	1.61763877e+05	3.00000000e+02	1.95083618e+03	4.36178238e+06	2.16156282e+00	1.11306424e-05	5.42333992e-38	1.47600542e-44	7.09497014e-10
4.01864389e-01	1.29320011e-01	9.96278638e-04	1.34827320e+00	1.62100483e+05	3.00000000e+02	1.95474762e+03	4.36935981e+06	2.16546262e+00	1.11306424e-05	8.26711926e-39	2.16876293e-44	7.10111367e-10
4.01916858e-01	1.29320011e-01	1.27666037e-03	1.35114345e+00	1.62580960e+05	3.00000000e+02	1.95732581e+03	4.38243556e+06	2.16918420e+00	1.11306424e-05	-1.91491790e-37	1.14122794e-44	7.10933931e-10
4.01982431e-01	1.29320011e-01	1.55635410e-03	1.35503315e+00	1.63182424e+05	3.00000000e+02	1.96185329e+03	4.39523805e+06	2.17482733e+00	1.11306424e-05	-1.07150424e-36	-9.87949594e-44	7.11952636e-10
4.00331847e-01	1.29320011e-01	6.51792460e-04	1.25006396e+00	1.47023864e+05	3.00000000e+02	1.89434501e+03	4.02891388e+06	2.05263164e+00	1.11306424e-05	8.79883913e-39	1.33657255e-45	6.87419132e-10
4.00697026e-01	1.29320011e-01	5.69093605e-04	1.27178391e+00	1.50301030e+05	3.00000000e+02	1.90454471e+03	4.10285187e+06	2.07595346e+00	1.11306424e-05	1.18377281e-38	1.96487699e-45	6.92529697e-10
4.01015860e-01	1.29320011e-01	5.20769240e-04	1.29216955e+00	1.53403443e+05	3.00000000e+02	1.91520785e+03	4.17267876e+06	2.09837490e+00	1.11306424e-05	1.55579322e-38	2.79910856e-45	6.97137966e-10
4.01302360e-01	1.29320011e-01	4.85786490e-04	1.31115108e+00	1.56314243e+05	3.00000000e+02	1.92621256e+03	4.23794980e+06	2.11979506e+00	1.11306424e-05	1.97872315e-38	3.83167092e-45	7.01396752e-10
4.01562979e-01	1.29320011e-01	4.56683981e-04	1.32860848e+00	1.59007746e+05	3.00000000e+02	1.93717394e+03	4.29795500e+06	2.13992379e+00	1.11306424e-05	2.43243135e-38	5.04287792e-45	7.05367059e-10
4.01576131e-01	1.29320011e-01	7.57570889e-04	1.32977819e+00	1.59219428e+05	3.00000000e+02	1.93992860e+03	4.30497806e+06	2.14238617e+00	1.11306424e-05	5.23240421e-38	1.26848670e-44	7.05605728e-10
4.01607475e-01	1.29320011e-01	1.05460224e-03	1.33161429e+00	1.59506232e+05	3.00000000e+02	1.94167056e+03	4.31152535e+06	2.14482788e+00	1.11306424e-05	2.81247737e-38	2.05498454e-44	7.06096068e-10
4.01649183e-01	1.29320011e-01	1.35152728e-03	1.33383219e+00	1.59884896e+05	3.00000000e+02	1.94613193e+03	4.32256030e+06	2.14907705e+00	1.11306424e-05	-9.45515983e-38	1.82611753e-44	7.06728484e-10
4.01700503e-01	1.29320011e-01	1.65466373e-03	1.33695121e+00	1.60365140e+05	3.00000000e+02	1.94735789e+03	4.33292099e+06	2.15226666e+00	1.11306424e-05	-5.77050183e-37	-3.65699826e-44	7.07509844e-10
4.01311667e-01	1.29320011e-01	8.02407610e-04	1.31224375e+00	1.56498423e+05	3.00000000e+02	1.92768789e+03	4.24329961e+06	2.12148995e+00	1.11306424e-05	4.82775294e-38	1.05385949e-44	7.01570018e-10
4.01339950e-01	1.29320011e-01	1.10971827e-03	1.31397843e+00	1.56776132e+05	3.00000000e+02	1.93017585e+03	4.25031840e+06	2.12426125e+00	1.11306424e-05	4.06065199e-38	1.86012746e-44	7.02002398e-10
4.01369472e-01	1.29320011e-01	1.41848190e-03	1.31553357e+00	1.57042480e+05	3.00000000e+02	1.93324977e+03	4.25831582e+06	2.12720968e+00	1.11306424e-05	-2.83201693e-38	2.04541649e-44	7.02442595e-10
4.01398105e-01	1.29320011e-01	1.74520517e-03	1.31712005e+00	1.57301165e+05	3.00000000e+02	1.93478611e+03	4.26516675e+06	2.12933756e+00	1.11306424e-05	-2.53355671e-37	-8.65109361e-46	7.02859359e-10
4.01445442e-01	1.29320011e-01	2.09890241e-03	1.32014084e+00	1.57760814e+05	3.00000000e+02	1.93596004e+03	4.27492061e+06	2.13242450e+00	1.11306424e-05	-2.83861748e-36	-3.01155164e-43	7.03561842e-10
4.01528179e-01	1.29320011e-01	2.47246120e-03	1.32566970e+00	1.58608867e+05	3.00000000e+02	1.93891896e+03	4.29332301e+06	2.13851768e+00	1.11306424e-05	-4.37040500e-35	-4.76854262e-42	7.04824437e-10
3.99999583e-01	1.29320011e-01	1.36280784e-03	1.23275454e+00	1.44436297e+05	3.00000000e+02	1.88683676e+03	3.97068412e+06	2.03432734e+00	1.11306424e-05	3.19362978e-38	4.83895572e-45	6.82922771e-10
4.00408432e-01	1.29320011e-01	1.04626203e-03	1.25464913e+00	1.47710515e+05	3.00000000e+02	1.89566760e+03	4.04419782e+06	2.05711040e+00	1.11306424e-05	3.38001874e-38	5.58486677e-45	6.88483642e-10
4.00734948e-01	1.29320011e-01	9.14404602e-04	1.27450659e+00	1.50713239e+05	3.00000000e+02	1.90535356e+03	4.11208700e+06	2.07861569e+00	1.11306424e-05	3.77848654e-38	6.81921418e-45	6.93087186e-10
4.01031568e-01	1.29320011e-01	8.51016215e-04	1.29369889e+00	1.53641828e+05	3.00000000e+02	1.91602304e+03	4.17839677e+06	2.10006306e+00	1.11306424e-05	4.31138805e-38	8.53569782e-45	6.97394864e-10
4.01068564e-01	1.29320011e-01	1.15715748e-03	1.29615405e+00	1.54032128e+05	3.00000000e+02	1.91913738e+03	4.18831174e+06	2.10376256e+00	1.11306424e-05	4.74062669e-38	1.62855156e-44	6.97946509e-10
4.01083480e-01	1.29320011e-01	1.46543269e-03	1.29692890e+00	1.54172548e+05	3.00000000e+02	1.92143535e+03	4.19316410e+06	2.10565068e+00	1.11306424e-05	1.50807558e-38	1.96786678e-44	6.98166218e-10
4.01069108e-01	1.29320011e-01	1.81262047e-03	1.29579298e+00	1.54015813e+05	3.00000000e+02	1.92162669e+03	4.19098373e+06	2.10483316e+00	1.11306424e-05	-5.89889757e-38	1.56590200e-44	6.97943758e-10
4.01079290e-01	1.29320011e-01	2.22562523e-03	1.29637212e+00	1.54092102e+05	3.00000000e+02	1.92054502e+03	4.19173233e+06	2.10471081e+00	1.11306424e-05	-1.12310427e-36	-8.93241872e-44	6.98081997e-10
4.01149426e-01	1.29320011e-01	2.69372971e-03	1.30102714e+00	1.54800173e+05	3.00000000e+02	1.92299536e+03	4.20721771e+06	2.10983096e+00	1.11306424e-05	-2.49664591e-35	-2.57362224e-42	6.99121967e-10
4.00560322e-01	1.29320011e-01	1.34204917e-03	1.26406577e+00	1.49141739e+05	3.00000000e+02	1.90140657e+03	4.07740689e+06	2.06793887e+00	1.11306424e-05	5.28138709e-38	1.31906452e-44	6.90612420e-10
4.00809254e-01	1.29320011e-01	1.19560533e-03	1.27946308e+00	1.51474795e+05	3.00000000e+02	1.90920973e+03	4.12993353e+06	2.08476004e+00	1.11306424e-05	5.01463329e-38	1.40926255e-44	6.94160393e-10
4.00806019e-01	1.29320011e-01	1.47408235e-03	1.27928913e+00	1.51468059e+05	3.00000000e+02	1.91078618e+03	4.13134354e+06	2.08547870e+00	1.11306424e-05	4.05312867e-38	1.71981178e-44	6.94118226e-10
4.00289741e-01	1.29320011e-01	1.72511654e-03	1.24882432e+00	1.46848946e+05	3.00000000e+02	1.89500509e+03	4.02587993e+06	2.05197106e+00	1.11306424e-05	6.56472420e-38	1.57369163e-44	6.86847936e-10
4.00703538e-01	1.29320011e-01	1.82775218e-03	1.27299391e+00	1.50524273e+05	3.00000000e+02	1.90831508e+03	4.11105584e+06	2.07899551e+00	1.11306424e-05	3.81710606e-38	1.92796611e-44	6.92650138e-10
4.00696250e-01	1.29320011e-01	2.94776482e-03	1.27269133e+00	1.50461227e+05	3.00000000e+02	1.90680996e+03	4.10826716e+06	2.07792857e+00	1.11306424e-05	-1.05962052e-35	-9.75726041e-43	6.92549972e-10
4.00646938e-01	1.29320011e-01	2.33058729e-03	1.26942970e+00	1.49974637e+05	3.00000000e+02	1.90530057e+03	4.09791345e+06	2.07444269e+00	1.11306424e-05	-1.61293728e-37	1.41890295e-44	6.91839048e-10
4.00116600e-01	1.29320011e-01	2.38604780e-03	1.23946801e+00	1.45442724e+05	3.00000000e+02	1.89030114e+03	3.99375811e+06	2.04173103e+00	1.11306424e-05	1.77337828e-37	3.72069029e-44	6.84486797e-10
4.02062635e-01	1.29320011e-01	1.83557398e-03	1.35978686e+00	1.63949928e+05	3.00000000e+02	1.96487177e+03	4.41394787e+06	2.18030190e+00	1.11306424e-05	-8.66892462e-36	-1.08132655e-42	7.13213379e-10
4.02158930e-01	1.29320011e-01	2.11346276e-03	1.36577720e+00	1.64869382e+05	3.00000000e+02	1.97029885e+03	4.43273493e+06	2.18812652e+00	1.11306424e-05	-8.44235869e-35	-9.73932161e-42	7.14748472e-10
4.01768193e-01	1.29320011e-01	1.96695855e-03	1.34108439e+00	1.61026177e+05	3.00000000e+02	1.95175710e+03	4.34897348e+06	2.15802374e+00	1.11306424e-05	-5.34589415e-36	-6.31291146e-43	7.08540778e-10
4.01858618e-01	1.29320011e-01	2.28561835e-03	1.34710182e+00	1.61939406e+05	3.00000000e+02	1.95379280e+03	4.36741297e+06	2.16398776e+00	1.11306424e-05	-6.41895078e-35	-7.23704459e-42	7.09960384e-10
4.01974461e-01	1.29320011e-01	2.60500679e-03	1.35435279e+00	1.63085114e+05	3.00000000e+02	1.96096890e+03	4.39377117e+06	2.17378511e+00	1.11306424e-05	-7.73540529e-34	-7.17571787e-41	7.11778739e-10
4.01654985e-01	1.29320011e-01	2.84941335e-03	1.33398129e+00	1.59891131e+05	3.00000000e+02	1.94453669e+03	4.32142273e+06	2.14831682e+00	1.11306424e-05	-7.23318815e-34	-6.59397783e-41	7.06765415e-10
4.01300970e-01	1.29320011e-01	3.20991140e-03	1.31092306e+00	1.56317629e+05	3.00000000e+02	1.92902890e+03	4.24098650e+06	2.12115954e+00	1.11306424e-05	-6.23708850e-34	-5.63769335e-41	7.01383409e-10
4.00864898e-01	1.29320011e-01	3.66567551e-03	1.28346984e+00	1.52104861e+05	3.00000000e+02	1.91303918e+03	4.14572429e+06	2.09011476e+00	1.11306424e-05	-4.31633397e-34	-3.91651736e-41	6.95002125e-10
4.01193100e-01	1.29320011e-01	4.63185826e-03	1.30433707e+00	1.55284676e+05	3.00000000e+02	1.92507950e+03	4.21626863e+06	2.11365752e+00	1.11306424e-05	-3.12950727e-32	-2.15167810e-39	6.99872487e-10
4.02224705e-01	1.29320011e-01	1.47375444e-03	1.36964150e+00	1.65527647e+05	3.00000000e+02	1.97476581e+03	4.45097712e+06	2.19370342e+00	1.11306424e-05	-1.68091056e-36	-1.79959155e-43	7.15847475e-10
4.02430584e-01	1.29320011e-01	1.41277460e-03	1.38227902e+00	1.67425540e+05	3.00000000e+02	1.98241762e+03	4.48592478e+06	2.20805963e+00	1.11306424e-05	-2.50080298e-36	-2.91937872e-43	7.19213363e-10
4.02308642e-01	1.29320011e-01	1.73212580e-03	1.37519081e+00	1.66289438e+05	3.00000000e+02	1.97523110e+03	4.45963828e+06	2.19838875e+00	1.11306424e-05	-1.24077559e-35	-1.59065373e-42	7.17190010e-10
4.02511060e-01	1.29320011e-01	1.66044691e-03	1.38625194e+00	1.68112081e+05	3.00000000e+02	1.98857350e+03	4.50522682e+06	2.21466107e+00	1.11306424e-05	-1.70283689e-35	-2.21241950e-42	7.20514613e-10
4.02703815e-01	1.29320011e-01	1.59218898e-03	1.39683101e+00	1.69749545e+05	3.00000000e+02	1.99765853e+03	4.53830490e+06	2.22816797e+00	1.11306424e-05	-2.24696673e-35	-2.92991512e-42	7.23722255e-10
4.02012793e-01	1.29320011e-01	1.35832420e-04	1.35918044e+00	1.63841609e+05	3.00000000e+02	1.96492015e+03	4.41056220e+06	2.17984815e+00	1.11306424e-05	1.74354228e-38	3.71421238e-45	7.12288856e-10
4.02227442e-01	1.29320011e-01	1.30216461e-04	1.37190900e+00	1.65855871e+05	3.00000000e+02	1.97670233e+03	4.45613670e+06	2.19658825e+00	1.11306424e-05	2.15210877e-38	4.81143279e-45	7.15746479e-10
4.02431851e-01	1.29320011e-01	1.24856096e-04	1.38344833e+00	1.67673583e+05	3.00000000e+02	1.98744035e+03	4.49594815e+06	2.21179000e+00	1.11306424e-05	2.58428002e-38	6.05106239e-45	7.19084189e-10
4.02626528e-01	1.29320011e-01	1.19763383e-04	1.39378159e+00	1.69303783e+05	3.00000000e+02	1.99756607e+03	4.53127471e+06	2.22568297e+00	1.11306424e-05	3.01472602e-38	7.39556432e-45	7.22300966e-10
4.02811920e-01	1.29320011e-01	1.14907718e-04	1.40297704e+00	1.70754321e+05	3.00000000e+02	2.00706442e+03	4.56226253e+06	2.23831551e+00	1.11306424e-05	3.40962580e-38	8.78862767e-45	7.25395850e-10
4.02988458e-01	1.29320011e-01	1.10277213e-04	1.41109138e+00	1.72033324e+05	3.00000000e+02	2.01595048e+03	4.58918235e+06	2.24974278e+00	1.11306424e-05	3.72751504e-38	1.01598490e-44	7.28368607e-10
4.02027018e-01	1.29320011e-01	4.07122208e-04	1.35912015e+00	1.63771989e+05	3.00000000e+02	1.95968926e+03	4.40457819e+06	2.17690001e+00	1.11306424e-05	3.37881389e-38	7.99482105e-45	7.12649692e-10
4.02241078e-01	1.29320011e-01	3.90273734e-04	1.37265038e+00	1.65867059e+05	3.00000000e+02	1.96999175e+03	4.44869082e+06	2.19344898e+00	1.11306424e-05	3.81377269e-38	9.67968377e-45	7.16102222e-10
4.02444929e-01	1.29320011e-01	3.74234995e-04	1.38445049e+00	1.67743933e+05	3.00000000e+02	1.98176105e+03	4.49113717e+06	2.20942735e+00	1.11306424e-05	4.14632837e-38	1.13745161e-44	7.19434963e-10
4.02639069e-01	1.29320011e-01	3.58952459e-04	1.39492859e+00	1.69406473e+05	3.00000000e+02	1.99277753e+03	4.52785164e+06	2.22392820e+00	1.11306424e-05	4.31349614e-38	1.29628116e-44	7.22644795e-10
4.02823954e-01	1.29320011e-01	3.44404666e-04	1.40412640e+00	1.70866917e+05	3.00000000e+02	2.00309648e+03	4.55972925e+06	2.23701760e+00	1.11306424e-05	4.24523958e-38	1.43184372e-44	7.25730507e-10
4.03000001e-01	1.29320011e-01	3.30551110e-04	1.41216004e+00	1.72142250e+05	3.00000000e+02	2.01267734e+03	4.58721077e+06	2.24876670e+00	1.11306424e-05	3.86561322e-38	1.53052659e-44	7.28691844e-10
4.02055425e-01	1.29320011e-01	6.77304372e-04	1.36103571e+00	1.64057204e+05	3.00000000e+02	1.96147035e+03	4.40979846e+06	2.17941641e+00	1.11306424e-05	5.38747765e-38	1.68533478e-44	7.13153360e-10
4.02268307e-01	1.29320011e-01	6.49273395e-04	1.37381857e+00	1.66107206e+05	3.00000000e+02	1.97386356e+03	4.45807902e+06	2.19653749e+00	1.11306424e-05	4.95781297e-38	1.85999729e-44	7.16594454e-10
4.02471040e-01	1.29320011e-01	6.22584942e-04	1.38569238e+00	1.67958991e+05	3.00000000e+02	1.98399380e+03	4.49721114e+06	2.21166292e+00	1.11306424e-05	4.01524216e-38	1.97598823e-44	7.19918447e-10
4.02664106e-01	1.29320011e-01	5.97160626e-04	1.39612437e+00	1.69602967e+05	3.00000000e+02	1.99423784e+03	4.53263812e+06	2.22569626e+00	1.11306424e-05	2.43640316e-38	2.01118016e-44	7.23120701e-10
4.02847963e-01	1.29320011e-01	5.72960711e-04	1.40526417e+00	1.71047436e+05	3.00000000e+02	2.00408528e+03	4.56363086e+06	2.23847605e+00	1.11306424e-05	8.67777741e-40	1.93933664e-44	7.26198693e-10
4.03023056e-01	1.29320011e-01	5.49909341e-04	1.41322682e+00	1.72306432e+05	3.00000000e+02	2.01332521e+03	4.59035984e+06	2.24997798e+00	1.11306424e-05	-3.17304125e-38	1.73484915e-44	7.29152111e-10
4.02097914e-01	1.29320011e-01	9.45618300e-04	1.36274245e+00	1.64405210e+05	3.00000000e+02	1.96667318e+03	4.42338150e+06	2.18368225e+00	1.11306424e-05	-2.11828110e-38	2.18173102e-44	7.13833822e-10
4.02309045e-01	1.29320011e-01	9.06489728e-04	1.37593202e+00	1.66411234e+05	3.00000000e+02	1.97526403e+03	4.46267115e+06	2.19900609e+00	1.11306424e-05	-6.29673341e-38	2.02324197e-44	7.17257092e-10
4.02510108e-01	1.29320011e-01	8.69225159e-04	1.38734959e+00	1.68228595e+05	3.00000000e+02	1.98635763e+03	4.50366760e+06	2.21430296e+00	1.11306424e-05	-1.20060792e-37	1.64070087e-44	7.20563128e-10
4.02701582e-01	1.29320011e-01	8.33740540e-04	1.39765335e+00	1.69853231e+05	3.00000000e+02	1.99644255e+03	4.53865481e+06	2.22814530e+00	1.11306424e-05	-1.95642376e-37	9.73544408e-45	7.23748748e-10
4.02883917e-01	1.29320011e-01	7.99943011e-04	1.40671774e+00	1.71283207e+05	3.00000000e+02	2.00600163e+03	4.56908321e+06	2.24070400e+00	1.11306424e-05	-2.93071096e-37	-3.43820511e-46	7.26811609e-10
4.03057572e-01	1.29320011e-01	7.67760171e-04	1.41460262e+00	1.72528035e+05	3.00000000e+02	2.01503795e+03	4.59532316e+06	2.25203019e+00	1.11306424e-05	-4.15652282e-37	-1.43562491e-44	7.29750894e-10
4.02154397e-01	1.29320011e-01	1.21134549e-03	1.36634644e+00	1.64897907e+05	3.00000000e+02	1.96751539e+03	4.42892540e+06	2.18702470e+00	1.11306424e-05	-3.18194621e-37	-1.40801898e-46	7.14733629e-10
4.02363182e-01	1.29320011e-01	1.16122137e-03	1.37835838e+00	1.66852808e+05	3.00000000e+02	1.98043515e+03	4.47667380e+06	2.20382321e+00	1.11306424e-05	-4.90968028e-37	-1.88516757e-44	7.18128433e-10
4.02562025e-01	1.29320011e-01	1.11348793e-03	1.38978794e+00	1.68625571e+05	3.00000000e+02	1.98979352e+03	4.51316681e+06	2.21816394e+00	1.11306424e-05	-7.19687782e-37	-4.62734323e-44	7.21407963e-10
4.02751379e-01	1.29320011e-01	1.06802313e-03	1.39986742e+00	1.70208629e+05	3.00000000e+02	1.99932614e+03	4.54669242e+06	2.23151927e+00	1.11306424e-05	-1.01372001e-36	-8.37920574e-44	7.24568073e-10
4.02931697e-01	1.29320011e-01	1.02473496e-03	1.40873065e+00	1.71605053e+05	3.00000000e+02	2.00858287e+03	4.57618505e+06	2.24374876e+00	1.11306424e-05	-1.38163656e-36	-1.32498228e-43	7.27606225e-10
4.03103429e-01	1.29320011e-01	9.83505926e-04	1.41644073e+00	1.72821017e+05	3.00000000e+02	2.01739008e+03	4.60165522e+06	2.25480770e+00	1.11306424e-05	-1.83014464e-36	-1.93071088e-43	7.30521679e-10
4.02626649e-01	1.29320011e-01	1.35468736e-03	1.39299113e+00	1.69133523e+05	3.00000000e+02	1.99319680e+03	4.52432867e+06	2.22261700e+00	1.11306424e-05	-3.55667202e-36	-4.38076271e-43	7.22461005e-10
4.02813366e-01	1.29320011e-01	1.29939158e-03	1.40268896e+00	1.70659773e+05	3.00000000e+02	2.00276783e+03	4.55673482e+06	2.23568884e+00	1.11306424e-05	-4.86251473e-36	-6.18626619e-43	7.25588283e-10
4.02991176e-01	1.29320011e-01	1.24671766e-03	1.41124427e+00	1.72005312e+05	3.00000000e+02	2.01175302e+03	4.58487327e+06	2.24752118e+00	1.11306424e-05	-6.42332691e-36	-8.32677458e-43	7.28594061e-10
4.03160507e-01	1.29320011e-01	1.19655590e-03	1.41868960e+00	1.73177303e+05	3.00000000e+02	2.02027265e+03	4.60918094e+06	2.25820857e+00	1.11306424e-05	-8.23181060e-36	-1.07748048e-42	7.31477562e-10
4.02887374e-01	1.29320011e-01	1.52718694e-03	1.40608826e+00	1.71201913e+05	3.00000000e+02	2.00680569e+03	4.56865249e+06	2.24065152e+00	1.11306424e-05	-2.86505778e-35	-3.72958037e-42	7.26809576e-10
4.03062196e-01	1.29320011e-01	1.46528007e-03	1.41422309e+00	1.72480332e+05	3.00000000e+02	2.01554072e+03	4.59519273e+06	2.25200897e+00	1.11306424e-05	-3.54353097e-35	-4.58680170e-42	7.29775551e-10
4.07160220e-01	1.29320011e-01	1.51994492e-03	1.43117481e+00	1.74504790e+05	3.00000000e+02	2.11099879e+03	4.59127664e+06	2.31849252e+00	1.11306424e-05	-5.42116393e-31	-2.42769990e-38	7.99397473e-10
4.07239827e-01	1.29320011e-01	1.51994499e-03	1.42955584e+00	1.74232305e+05	3.00000000e+02	2.11067883e+03	4.58443028e+06	2.31700518e+00	1.11306424e-05	-5.78459456e-31	-2.60332030e-38	8.00683436e-10
4.07322780e-01	1.29320011e-01	1.55977488e-03	1.42781720e+00	1.73940929e+05	3.00000000e+02	2.11029010e+03	4.57717483e+06	2.31538252e+00	1.11306424e-05	-7.30227634e-31	-3.21949961e-38	8.02015895e-10
4.07319316e-01	1.29320011e-01	1.51577917e-03	1.42791460e+00	1.73956202e+05	3.00000000e+02	2.11028099e+03	4.57748589e+06	2.31545650e+00	1.11306424e-05	-6.07154464e-31	-2.75165109e-38	8.01964263e-10
4.07410302e-01	1.29320011e-01	1.59726049e-03	1.42595348e+00	1.73629073e+05	3.00000000e+02	2.10985244e+03	4.56942115e+06	2.31363139e+00	1.11306424e-05	-9.14004603e-31	-3.95479629e-38	8.03417485e-10
4.07404251e-01	1.29320011e-01	1.55121322e-03	1.42610982e+00	1.73653982e+05	3.00000000e+02	2.10981732e+03	4.56995872e+06	2.31373852e+00	1.11306424e-05	-7.55226158e-31	-3.35883146e-38	8.03325149e-10
4.07398483e-01	1.29320011e-01	1.50745770e-03	1.42625754e+00	1.73677696e+05	3.00000000e+02	2.10982158e+03	4.57048211e+06	2.31386069e+00	1.11306424e-05	-6.26936792e-31	-2.86697260e-38	8.03236766e-10
4.07316022e-01	1.29320011e-01	1.47397176e-03	1.42800967e+00	1.73970768e+05	3.00000000e+02	2.11025424e+03	4.57775826e+06	2.31551890e+00	1.11306424e-05	-5.07030182e-31	-2.36310942e-38	8.01915134e-10
4.07312892e-01	1.29320011e-01	1.43424495e-03	1.42809976e+00	1.73984699e+05	3.00000000e+02	2.11022954e+03	4.57802799e+06	2.31557839e+00	1.11306424e-05	-4.25236365e-31	-2.03919556e-38	8.01868153e-10
4.07392998e-01	1.29320011e-01	1.46587977e-03	1.42640007e+00	1.73700293e+05	3.00000000e+02	2.10981273e+03	4.57096108e+06	2.31397145e+00	1.11306424e-05	-5.22721924e-31	-2.45895584e-38	8.03152628e-10
4.07493606e-01	1.29320011e-01	1.58406690e-03	1.42416955e+00	1.73331511e+05	3.00000000e+02	2.10931454e+03	4.56206746e+06	2.31188904e+00	1.11306424e-05	-9.31499082e-31	-4.07257179e-38	8.04752444e-10
4.07576118e-01	1.29320011e-01	1.56652947e-03	1.42240975e+00	1.73032895e+05	3.00000000e+02	2.10860485e+03	4.55433131e+06	2.31007099e+00	1.11306424e-05	-9.34044478e-31	-4.13343000e-38	8.06071481e-10
4.07485147e-01	1.29320011e-01	1.53839882e-03	1.42438765e+00	1.73365394e+05	3.00000000e+02	2.10929674e+03	4.56274006e+06	2.31205578e+00	1.11306424e-05	-7.68500615e-31	-3.45442283e-38	8.04621794e-10
4.07477105e-01	1.29320011e-01	1.49500351e-03	1.42458730e+00	1.73397540e+05	3.00000000e+02	2.10931893e+03	4.56345796e+06	2.31222997e+00	1.11306424e-05	-6.37018452e-31	-2.94479867e-38	8.04497367e-10
4.07565277e-01	1.29320011e-01	1.52136907e-03	1.42266545e+00	1.73075774e+05	3.00000000e+02	2.10870445e+03	4.55540994e+06	2.31033318e+00	1.11306424e-05	-7.69500744e-31	-3.50155640e-38	8.05903142e-10
4.07554979e-01	1.29320011e-01	1.47845535e-03	1.42290981e+00	1.73116580e+05	3.00000000e+02	2.10877100e+03	4.55642473e+06	2.31056805e+00	1.11306424e-05	-6.36951158e-31	-2.98161307e-38	8.05742810e-10
4.07644407e-01	1.29320011e-01	1.50016759e-03	1.42094009e+00	1.72786934e+05	3.00000000e+02	2.10807326e+03	4.54816899e+06	2.30858622e+00	1.11306424e-05	-7.58197431e-31	-3.49888515e-38	8.07165207e-10
4.07631866e-01	1.29320011e-01	1.45785262e-03	1.42123544e+00	1.72836409e+05	3.00000000e+02	2.10816555e+03	4.54941261e+06	2.30887667e+00	1.11306424e-05	-6.26775631e-31	-2.97540423e-38	8.06969452e-10
4.07722294e-01	1.29320011e-01	1.47485541e-03	1.41921720e+00	1.72500379e+05	3.00000000e+02	2.10745173e+03	4.54109285e+06	2.30684607e+00	1.11306424e-05	-7.35108586e-31	-3.44524782e-38	8.08404068e-10